# vtk DataFile Version 2.0
feflo
ASCII
DATASET UNSTRUCTURED_GRID
POINTS 1485 double  
1 0 0 
20.5 0 0 
0.5 20 0 
-19.5 0 0 
0.5 -20 0 
0.980389 -0.00389417 0 
0.958255 -0.00699308 0 
0.933996 -0.0101594 0 
0.907507 -0.0135253 0 
0.878616 -0.0171014 0 
0.847919 -0.0207724 0 
0.817015 -0.024329 0 
0.786393 -0.0277255 0 
0.755813 -0.030995 0 
0.725302 -0.0341331 0 
0.694886 -0.037135 0 
0.664592 -0.0399954 0 
0.634448 -0.0427077 0 
0.60448 -0.0452642 0 
0.574717 -0.0476564 0 
0.54519 -0.0498749 0 
0.515929 -0.051908 0 
0.486967 -0.053744 0 
0.45834 -0.0553709 0 
0.430083 -0.0567761 0 
0.402236 -0.0579463 0 
0.374839 -0.0588675 0 
0.347935 -0.0595279 0 
0.32157 -0.0599139 0 
0.295791 -0.0600134 0 
0.270647 -0.0598164 0 
0.246188 -0.0593119 0 
0.222469 -0.0584916 0 
0.199541 -0.0573485 0 
0.17746 -0.0558763 0 
0.156282 -0.0540704 0 
0.136063 -0.0519269 0 
0.116862 -0.0494428 0 
0.0987367 -0.0466131 0 
0.0817502 -0.0434341 0 
0.0648093 -0.0396101 0 
0.0487934 -0.0351776 0 
0.033923 -0.0300095 0 
0.0204274 -0.0238295 0 
0.00994854 -0.0169954 0 
0.00263074 -0.00893662 0 
4.18498e-06 0.00035955 0 
0.00291522 0.00939587 0 
0.0103466 0.0173155 0 
0.0206119 0.0239287 0 
0.0332649 0.0297483 0 
0.0472228 0.0346881 0 
0.0622806 0.03897 0 
0.0783338 0.0427212 0 
0.0953226 0.0460188 0 
0.112544 0.0488151 0 
0.13048 0.0512532 0 
0.149436 0.0533938 0 
0.169365 0.0552351 0 
0.190221 0.0567744 0 
0.211957 0.0580129 0 
0.234524 0.0589518 0 
0.257876 0.0595938 0 
0.281965 0.0599432 0 
0.306743 0.0600065 0 
0.332164 0.0597917 0 
0.358183 0.0593065 0 
0.384754 0.0585619 0 
0.411834 0.0575684 0 
0.439383 0.0563368 0 
0.46736 0.0548795 0 
0.495728 0.0532081 0 
0.524449 0.0513338 0 
0.55349 0.0492676 0 
0.582817 0.0470204 0 
0.6124 0.0446025 0 
0.642208 0.0420227 0 
0.672212 0.0392884 0 
0.702384 0.0364069 0 
0.732698 0.0333839 0 
0.763127 0.0302242 0 
0.793644 0.0269322 0 
0.824223 0.0235114 0 
0.854837 0.0199574 0 
0.885879 0.0162128 0 
0.916179 0.0124318 0 
0.944271 0.00883291 0 
0.962925 0.00636583 0 
0.981559 0.00370866 0 
20.0259 4.21764 0 
18.6179 8.49578 0 
16.185 12.4045 0 
13.0838 15.5419 0 
9.35278 17.9432 0 
5.04558 19.4615 0 
-3.75217 19.5194 0 
-8.04267 18.0954 0 
-11.9557 15.6445 0 
-15.09 12.524 0 
-17.4673 8.80459 0 
-18.9668 4.51943 0 
-19.0265 -4.21418 0 
-17.6208 -8.48963 0 
-15.191 -12.3969 0 
-12.0934 -15.5342 0 
-8.37276 -17.9332 0 
-4.05643 -19.4592 0 
4.75217 -19.5194 0 
9.05051 -18.0917 0 
12.9689 -15.634 0 
16.1055 -12.5046 0 
18.4807 -8.7778 0 
19.9698 -4.50491 0 
-0.00593567 -0.00755492 0 
-0.00793343 0.00412449 0 
-0.000158761 -0.0185832 0 
-0.00782784 0.0164361 0 
-0.0171479 -0.00411814 0 
0.00157713 0.0220361 0 
0.00903187 -0.0284153 0 
0.0103536 0.0290092 0 
-0.0188177 0.0104137 0 
-0.0122544 -0.0180979 0 
-0.006716 0.0276294 0 
0.000551567 0.0324616 0 
-0.0040281 -0.0310853 0 
0.0209757 -0.0369395 0 
0.0210695 0.0365986 0 
-0.01736 0.0253479 0 
-0.0305684 0.00166772 0 
-0.0265002 -0.0153271 0 
0.00694916 -0.0424824 0 
0.00766612 0.041417 0 
0.0198953 0.0512956 0 
0.0352135 -0.0443506 0 
0.0341884 0.0438408 0 
0.0201969 -0.0523251 0 
-0.019117 -0.031608 0 
-0.0313843 0.0190442 0 
-0.00988086 0.0418399 0 
0.0513085 -0.0507638 0 
0.0490906 0.0502703 0 
0.0344208 0.0602636 0 
-0.00878033 -0.0463643 0 
0.00360901 0.0565337 0 
0.0357676 -0.0610128 0 
0.00375334 -0.0590852 0 
-0.0430832 -0.0102468 0 
0.0686748 -0.056255 0 
0.0654304 0.0557983 0 
-0.0365677 -0.0297729 0 
-0.0287273 0.0368061 0 
0.0827291 0.0603752 0 
-0.0463626 0.00967771 0 
0.104832 -0.0649598 0 
0.0865505 -0.0609148 0 
0.0176749 0.0686207 0 
0.0183649 -0.0702629 0 
0.050966 0.0681383 0 
0.0535217 -0.0686277 0 
0.100466 0.0642269 0 
0.123878 -0.0686113 0 
-0.0268522 -0.0482131 0 
-0.0462928 0.0300765 0 
-0.0123911 0.0604287 0 
0.0689817 0.0746214 0 
0.118558 0.0677039 0 
0.0723392 -0.0750579 0 
-0.0245614 0.0531805 0 
-0.0625149 -0.00310633 0 
0.0342861 0.0795023 0 
-0.0146211 -0.064417 0 
0.0356536 -0.0804307 0 
0.143889 -0.071915 0 
-0.00209296 0.07457 0 
-0.000675416 -0.0783464 0 
-0.0567832 -0.0256202 0 
0.995784 0.0198596 0 
0.137367 0.070913 0 
0.0873514 0.0792806 0 
0.16489 -0.0748555 0 
0.091211 -0.0805475 0 
-0.0478252 -0.0476875 0 
-0.041956 0.0512987 0 
0.157096 0.0738305 0 
0.014652 0.089291 0 
0.186844 -0.0773842 0 
-0.0651778 0.0198283 0 
0.0154848 -0.0912141 0 
0.10541 0.0836177 0 
0.05311 0.0888522 0 
0.11026 -0.0855975 0 
0.0553622 -0.0892813 0 
0.977634 0.020729 0 
0.177772 0.0764222 0 
0.209642 -0.0794003 0 
-0.0357301 -0.0680377 0 
0.998608 -0.0198122 0 
-0.0287136 0.0750623 0 
0.199357 0.0786702 0 
0.123994 0.0878177 0 
0.130145 -0.0902036 0 
-0.0641098 0.0438459 0 
0.233158 -0.0810305 0 
-0.0215245 -0.0849227 0 
0.0737085 0.0956859 0 
0.0754712 -0.0960891 0 
0.0339582 0.102386 0 
0.2218 0.0805698 0 
0.960885 0.0293626 0 
1.01689 0.0148471 0 
1.01923 -0.00808257 0 
-0.0802841 -0.0194517 0 
0.0350779 -0.103289 0 
0.143442 0.0918578 0 
0.257426 -0.0824137 0 
0.151032 -0.0943109 0 
-0.00860714 0.096477 0 
-0.0854506 0.0059029 0 
-0.0722019 -0.044704 0 
0.245048 0.0821224 0 
-0.00656118 -0.100094 0 
1.01854 -0.0296975 0 
0.282469 -0.0834852 0 
0.975995 -0.0274479 0 
1.04081 0.0070534 0 
0.0920193 0.0970721 0 
0.0945171 -0.102563 0 
0.269052 0.0833313 0 
0.163892 0.0955669 0 
0.172906 -0.0980144 0 
0.308196 -0.0842148 0 
-0.0605722 -0.0694564 0 
-0.0578157 0.0691635 0 
0.293763 0.0842035 0 
0.0108988 0.11418 0 
1.01128 0.0346262 0 
0.935195 0.0368791 0 
0.334535 -0.0846039 0 
0.185317 0.0989621 0 
0.109053 0.105057 0 
0.0113602 -0.115869 0 
1.04156 -0.0209112 0 
0.319133 0.0847465 0 
0.0562708 0.113296 0 
0.114217 -0.109374 0 
0.195851 -0.10104 0 
0.0576207 -0.112961 0 
-0.0875943 0.0324783 0 
0.361429 -0.0846646 0 
0.345114 0.0849706 0 
0.951502 -0.0332249 0 
0.207643 0.101921 0 
0.388829 -0.0844105 0 
-0.0450508 -0.0915955 0 
0.219281 -0.102893 0 
0.371661 0.0848857 0 
1.03499 0.0339289 0 
-0.0311194 0.101958 0 
0.128857 0.106841 0 
0.41669 -0.0838571 0 
0.13544 -0.114457 0 
0.398729 0.0845046 0 
-0.107356 -0.0115033 0 
0.23082 0.104526 0 
0.44497 -0.0830188 0 
0.084996 0.1205 0 
0.243029 -0.105036 0 
0.426275 0.0838392 0 
-0.0493228 0.0921814 0 
-0.0849045 0.0614242 0 
-0.028004 -0.10527 0 
0.0778923 -0.116411 0 
0.988397 0.0438503 0 
0.47363 -0.0819117 0 
0.0335468 0.129805 0 
0.905447 0.0427591 0 
0.454258 0.0829033 0 
-0.100313 -0.0393385 0 
0.034957 -0.130627 0 
0.254761 0.106686 0 
0.147832 0.115032 0 
0.50263 -0.0805503 0 
0.482639 0.08171 0 
-0.0899307 -0.0679014 0 
0.157163 -0.119289 0 
0.267829 -0.107014 0 
1.03492 -0.0497169 0 
0.531936 -0.0789494 0 
0.999503 -0.0489236 0 
0.925349 -0.0394861 0 
0.511382 0.0802728 0 
0.561514 -0.0771224 0 
0.279441 0.108493 0 
-0.0166185 0.122636 0 
0.540451 0.0786043 0 
1.06877 -0.00542181 0 
0.591334 -0.0750829 0 
0.569812 0.0767173 0 
0.293477 -0.10869 0 
-0.112357 0.0168625 0 
-0.0161239 -0.124655 0 
0.0941939 -0.127829 0 
0.621364 -0.0728423 0 
0.169964 0.116122 0 
0.599435 0.0746232 0 
1.06492 0.0269625 0 
0.651577 -0.0704118 0 
0.62929 0.0723331 0 
0.304781 0.109876 0 
0.180301 -0.123613 0 
0.681944 -0.0678011 0 
0.659349 0.069856 0 
0.71244 -0.0650211 0 
0.319804 -0.109935 0 
0.689582 0.0672008 0 
0.874465 0.0475734 0 
0.743042 -0.0620911 0 
0.719965 0.0643765 0 
0.773775 -0.0590523 0 
0.750471 0.0614012 0 
-0.0747105 -0.0963273 0 
0.804747 -0.055957 0 
0.781105 0.0583256 0 
0.835874 -0.0525389 0 
0.811991 0.0552027 0 
0.330763 0.11092 0 
0.896624 -0.0443025 0 
0.191114 0.124001 0 
-0.0747732 0.0921198 0 
0.866644 -0.0484988 0 
0.346728 -0.110827 0 
0.0064948 0.14437 0 
0.11999 0.131994 0 
0.843181 0.0517149 0 
0.205334 -0.126455 0 
0.00616621 -0.145867 0 
0.117903 -0.136631 0 
0.35731 0.111568 0 
0.0593191 0.1424 0 
0.0653318 -0.141188 0 
0.37416 -0.111311 0 
1.02069 0.0583871 0 
1.06805 -0.0390695 0 
0.970416 -0.0509877 0 
0.384404 0.111897 0 
0.215171 0.123908 0 
0.402078 -0.111469 0 
-0.114036 0.0485852 0 
-0.0506586 -0.123994 0 
0.227908 -0.124846 0 
-0.0516029 0.121861 0 
0.411974 0.111863 0 
0.430411 -0.111259 0 
-0.137024 -0.00219084 0 
0.140332 -0.137871 0 
0.440003 0.111534 0 
1.0558 0.0594068 0 
0.238165 0.13126 0 
0.960011 0.0602247 0 
0.459143 -0.110754 0 
0.251222 -0.131845 0 
-0.1314 -0.0312293 0 
0.468426 0.110877 0 
0.488211 -0.109921 0 
0.497229 0.109951 0 
0.263685 0.129891 0 
0.517603 -0.108822 0 
0.0340222 0.162277 0 
-0.108426 0.084956 0 
0.160795 0.144175 0 
-0.110954 -0.0959555 0 
-0.123742 -0.0626441 0 
0.526353 0.108731 0 
0.0884704 0.155713 0 
0.277332 -0.130318 0 
0.54726 -0.107433 0 
0.161883 -0.147716 0 
0.0352716 -0.163972 0 
0.555785 0.107268 0 
1.09852 0.0148044 0 
0.577174 -0.105806 0 
0.947399 -0.0640404 0 
0.585475 0.105543 0 
0.288238 0.136662 0 
0.607292 -0.103922 0 
0.615411 0.103599 0 
1.06166 -0.0758497 0 
0.302835 -0.137011 0 
0.637605 -0.101823 0 
0.645546 0.101419 0 
0.0932662 -0.158434 0 
0.668067 -0.0994966 0 
0.675874 0.0990387 0 
-0.0272135 0.155286 0 
0.69866 -0.0969847 0 
0.706348 0.0964481 0 
0.314965 0.134088 0 
0.729348 -0.0942932 0 
0.736958 0.0936903 0 
0.895337 0.0766645 0 
0.188681 -0.148279 0 
0.760153 -0.0915386 0 
0.767675 0.0908232 0 
0.79135 -0.088857 0 
0.798637 0.0881203 0 
-0.0283081 -0.156683 0 
0.330524 -0.134268 0 
1.10131 -0.0214481 0 
0.823617 -0.0864547 0 
0.927957 0.0703164 0 
0.86319 0.081666 0 
0.830656 0.0858153 0 
0.855642 -0.0820786 0 
0.885881 -0.0758645 0 
1.09317 0.0514121 0 
-0.144136 0.0292586 0 
1.02054 -0.0827153 0 
0.340865 0.14028 0 
0.916681 -0.0722366 0 
-0.0926218 -0.129587 0 
-0.0925507 0.123877 0 
0.357348 -0.140349 0 
0.206789 0.155126 0 
0.368619 0.136607 0 
0.22099 -0.155782 0 
0.00268501 0.181454 0 
0.129528 -0.169415 0 
0.385962 -0.136462 0 
0.061316 0.17165 0 
0.124071 0.172382 0 
0.395674 0.142241 0 
0.00126335 -0.183428 0 
0.994614 0.0822086 0 
0.0646194 -0.174079 0 
0.413821 -0.14196 0 
0.424283 0.137574 0 
0.443159 -0.137065 0 
0.979675 -0.0797856 0 
1.1011 -0.0605803 0 
1.03769 0.0940591 0 
0.452311 0.142678 0 
-0.160112 -0.0203048 0 
-0.145795 0.0694768 0 
[...]
CELL_DATA 2857
SCALARS scalars float 1 
 LOOKUP_TABLE default
-6.59372e-20
-2.11229e-19
7.81496e-19
3.95176e-18
-1.20735e-18
3.5382e-18
-3.5632e-19
-2.37462e-18
3.4786e-19
4.34441e-18
-2.5572e-19
2.52681e-18
-1.74534e-18
2.46173e-18
-1.62805e-18
-3.16825e-19
5.72074e-19
-1.51339e-18
-6.1242e-19
8.06443e-19
2.21563e-18
1.38807e-18
-2.45327e-18
4.68274e-19
-1.14645e-18
1.99795e-18
1.25389e-18
2.69016e-18
-3.21761e-18
1.0057e-18
-1.33743e-18
2.69966e-18
-2.35616e-18
-2.45242e-19
-3.30212e-18
-7.70985e-19
-9.10473e-19
1.56456e-18
1.97507e-18
-4.87192e-19
9.92361e-19
-3.69763e-18
3.99732e-18
-1.50804e-19
-4.56207e-18
-9.3533e-19
3.31223e-19
1.6986e-18
-4.112e-18
2.89728e-18
3.02815e-18
7.41573e-19
-3.63382e-20
-2.66278e-18
-2.29161e-18
1.93662e-18
2.04753e-18
1.01538e-18
1.37254e-18
2.70192e-18
1.37119e-18
1.81715e-18
2.69051e-18
-2.03911e-18
-2.31044e-19
-2.07456e-18
4.77564e-19
2.12447e-19
-6.68153e-19
2.23975e-18
-1.97621e-18
5.01172e-20
8.08527e-19
4.16902e-18
-2.8381e-19
1.28451e-18
-1.01538e-19
1.24896e-18
2.22245e-18
-2.06449e-18
2.69629e-18
1.54507e-19
-1.03642e-18
-9.44652e-19
-1.97191e-18
-1.39759e-18
1.34512e-18
-8.5759e-21
2.09353e-18
4.34785e-19
1.2969e-18
-2.29741e-18
1.76588e-18
-3.47902e-18
-4.52969e-19
-2.37195e-18
2.13232e-18
-2.55624e-18
2.22873e-19
2.12662e-18
-3.25147e-18
-1.61254e-18
2.73757e-18
-4.84135e-18
4.47953e-19
1.94593e-18
-1.83162e-18
-4.66478e-18
-1.52732e-18
-1.02e-20
-6.24275e-19
1.81418e-18
1.16295e-18
-2.71007e-19
3.40848e-18
1.00444e-18
-1.46006e-18
-4.73747e-19
-2.10066e-18
6.89162e-19
-5.05666e-19
-2.46824e-19
6.94642e-19
-1.05505e-18
-2.99533e-18
-2.4697e-18
-6.75785e-19
-1.5548e-18
1.94426e-18
3.80898e-19
-9.82203e-19
5.14575e-19
-1.20319e-18
-3.33074e-18
-6.55303e-19
9.54581e-19
-8.18668e-19
-2.06667e-18
-8.65657e-19
-5.13113e-21
-1.48523e-18
2.46138e-18
-1.06141e-18
-7.85249e-19
-5.73831e-19
-8.37729e-19
4.41815e-19
-2.84961e-18
2.73534e-18
2.1264e-18
9.84756e-19
-1.80986e-18
1.48583e-18
-1.14807e-18
-3.13503e-19
-6.36541e-19
7.9578e-19
1.40694e-18
2.17891e-18
1.13663e-18
1.6489e-18
-1.58786e-18
6.36701e-19
1.45182e-18
5.09205e-21
3.35775e-18
5.78921e-19
2.85102e-18
-1.79601e-18
-3.16927e-20
2.37259e-18
-2.58098e-18
-1.15958e-18
2.73633e-18
3.12574e-18
2.97311e-18
-2.94461e-19
4.13247e-18
3.17184e-18
-1.24636e-18
2.69203e-18
-1.01338e-19
-1.79298e-18
1.68885e-18
9.82592e-19
-2.33669e-18
2.0391e-18
-4.09544e-18
5.93332e-18
8.25385e-19
-1.78146e-18
-3.03751e-19
1.57401e-18
-1.52733e-18
4.87747e-18
-1.18615e-18
1.56395e-18
4.40587e-18
-7.99312e-19
-2.51552e-18
4.60835e-20
-2.47395e-18
9.11753e-19
8.04333e-19
2.17404e-18
1.65128e-18
4.71914e-18
2.32499e-18
2.21958e-18
-4.05397e-18
-2.32437e-19
-3.32567e-19
-1.15261e-18
-1.42646e-18
-1.25228e-18
-2.34786e-18
7.47444e-19
-9.01723e-19
-8.50128e-19
1.32567e-18
-8.33072e-19
3.47901e-18
1.5805e-18
-6.11428e-20
-1.10159e-18
4.39575e-18
-4.07358e-19
-1.17255e-19
-3.35469e-18
5.54097e-19
1.76361e-18
2.90762e-18
4.20267e-19
-1.16671e-18
1.74965e-19
-4.3916e-18
-1.11546e-18
1.10526e-18
-2.88198e-18
5.49116e-19
-2.05989e-18
-3.81453e-19
-5.0751e-19
-9.29338e-19
-2.37514e-18
-4.52863e-18
-1.81126e-18
-3.34665e-19
6.18274e-19
-3.33395e-18
-2.31552e-18
7.92544e-19
-2.99953e-18
-2.74402e-18
-3.52695e-18
-1.0366e-18
2.54244e-18
1.44247e-18
1.48387e-18
1.78759e-18
-1.39362e-18
2.26673e-18
-1.01025e-18
2.5074e-19
-1.60735e-20
-4.95677e-19
3.38221e-18
-8.14928e-19
-2.47125e-20
1.04032e-18
1.57843e-19
1.2544e-18
-5.89879e-19
-1.97624e-18
2.19001e-18
-1.57777e-18
1.66804e-19
-1.00773e-18
-3.35964e-18
-3.33475e-18
1.25653e-19
-1.2129e-19
-1.69174e-19
5.99256e-19
3.04204e-18
3.13045e-18
-1.63081e-18
1.04868e-18
-4.16362e-19
-1.67993e-19
2.1795e-19
-2.01189e-18
-2.07096e-18
-2.15878e-20
-2.24067e-18
3.25769e-18
2.54365e-18
-1.81242e-18
-9.8231e-19
-2.30899e-18
-5.56257e-20
1.09091e-18
-8.78067e-19
2.41006e-18
4.61347e-19
-9.53806e-20
4.16984e-18
1.63258e-18
3.33838e-18
5.09722e-20
1.59362e-18
-1.27485e-18
-6.38904e-19
1.41733e-18
-4.89769e-18
1.96002e-18
-3.84154e-18
3.61875e-18
4.83223e-20
-4.61018e-19
1.2771e-18
-2.58781e-18
2.84554e-19
1.92637e-18
-1.93055e-19
-2.35367e-18
-6.70245e-19
2.98954e-18
-4.55122e-19
6.35769e-19
2.02651e-19
-5.34006e-18
-3.27986e-18
2.11674e-18
-3.09589e-18
-5.97128e-19
9.61801e-19
-1.66605e-19
2.61741e-19
1.90553e-18
1.39377e-19
-5.97726e-19
-2.94139e-18
9.64374e-19
-6.88917e-19
-4.09339e-19
9.66674e-19
1.27693e-19
-8.12827e-19
1.84187e-19
-2.69792e-19
3.37282e-19
-8.36174e-20
-2.17581e-18
4.41177e-18
-1.65716e-18
-1.23119e-19
3.73449e-18
3.64807e-19
3.16122e-18
-1.77165e-18
-4.06522e-19
-5.29974e-19
6.90236e-19
1.7448e-18
1.62858e-18
-6.35537e-19
-9.77185e-19
1.29903e-18
-6.90744e-19
3.49664e-19
3.17086e-18
-3.36788e-18
2.24807e-18
-2.0732e-18
-2.19678e-20
1.13537e-18
2.34234e-18
6.29148e-19
-1.2197e-18
1.79494e-18
-2.10372e-19
-1.31099e-18
-1.91927e-19
-5.76202e-19
1.04017e-18
-3.91424e-18
-2.59329e-18
1.78993e-18
-1.2602e-18
2.22055e-18
1.48253e-20
1.8161e-19
1.44315e-18
6.50906e-19
2.85368e-18
-1.23272e-18
-4.60047e-20
-2.88131e-18
4.83161e-19
-3.51567e-19
-2.1342e-18
5.1727e-18
-1.74467e-18
7.05723e-19
-5.89799e-19
-1.98724e-18
-1.65702e-19
-2.59983e-18
2.84808e-18
-1.03468e-20
-7.68777e-19
-8.19215e-20
-9.83182e-19
-3.89479e-18
1.72255e-18
3.04105e-18
2.16844e-18
5.65607e-19
-1.68371e-18
1.94681e-18
-1.06718e-18
-2.48744e-18
-1.03569e-18
6.75846e-20
2.73104e-18
-2.91639e-18
3.83675e-18
2.73558e-18
-2.29216e-18
3.05829e-18
1.40931e-18
-4.46374e-19
-2.09991e-18
7.27069e-19
1.34329e-19
3.95125e-19
3.51688e-18
5.69201e-18
-1.43944e-18
1.8723e-18
1.04909e-18
-1.53768e-18
3.01456e-18
7.46817e-20
1.48106e-18
-1.70427e-18
3.55981e-18
1.7302e-18
2.23879e-18
-3.10878e-18
-3.2495e-18
-6.55024e-19
-1.7476e-18
-9.28663e-19
1.69966e-18
-7.37867e-19
-5.19844e-19
-4.34621e-18
-1.36394e-18
5.54608e-18
2.26607e-18
-3.67617e-19
1.0768e-19
-8.80745e-19
2.60297e-18
8.3396e-19
1.45256e-18
-2.45418e-18
-4.50646e-18
-2.93046e-18
-5.74895e-19
-2.4436e-18
8.42092e-19
-8.22087e-19
-6.3142e-20
-1.39165e-18
-2.85189e-18
4.68469e-19
9.92463e-19
-2.68958e-18
2.00017e-18
-9.93568e-19
1.22628e-18
1.14463e-18
-5.05525e-19
2.10798e-18
-1.78079e-18
-2.04808e-18
2.43976e-18
-1.7049e-18
-4.83075e-19
8.74457e-19
-3.99521e-19
-5.34511e-19
1.2441e-18
4.24377e-18
-4.68636e-19
-6.11161e-19
6.37061e-19
-1.53488e-18
-7.14718e-19
-2.02811e-18
5.05869e-18
-1.03081e-18
-1.38953e-18
5.79643e-20
-2.846e-18
3.8271e-18
-1.25916e-18
-5.6732e-19
-7.55041e-19
-7.6684e-19
-7.94738e-19
5.13309e-18
-2.41483e-18
2.03474e-18
-2.99245e-19
8.58844e-19
4.44724e-19
-6.01677e-19
1.89985e-18
1.72634e-18
-5.38308e-19
-1.93863e-18
-4.90949e-19
1.15328e-19
-1.35548e-20
3.18996e-19
1.98879e-19
3.30397e-18
-3.77031e-18
-2.22107e-18
2.66142e-18
-2.13963e-18
2.46721e-18
-2.12064e-18
1.13623e-18
-5.07787e-19
3.23863e-19
1.60388e-18
-4.63008e-19
-6.36716e-19
1.35736e-18
-3.38345e-18
2.35986e-19
-1.67305e-18
1.04563e-18
-3.36943e-18
-1.51279e-19
-4.29263e-19
7.55615e-19
3.27264e-19
2.22319e-18
1.57818e-19
4.89144e-18
2.61529e-19
5.02484e-19
-5.7778e-20
-2.29777e-18
3.51119e-19
1.57498e-18
-1.437e-18
1.04975e-18
-1.28087e-19
-3.37421e-19
3.8865e-20
-5.18819e-19
3.70811e-18
3.61108e-18
-2.92746e-18
2.03669e-18
-9.52146e-19
1.39795e-18
-1.55342e-18
-1.71153e-19
-1.84095e-18
1.11365e-18
-1.3252e-18
9.20942e-19
-2.16304e-18
-7.06493e-19
-2.10708e-18
1.56854e-18
-4.97419e-19
5.55527e-19
-1.32235e-18
1.44002e-18
-6.22035e-19
3.13838e-19
-1.61811e-18
-2.82273e-18
-2.36815e-18
7.28897e-19
-3.5897e-18
3.61798e-18
1.33171e-18
8.09399e-19
5.65784e-19
-3.3089e-19
3.19809e-19
-4.03778e-19
6.03063e-19
5.05464e-19
1.13743e-18
-7.05155e-19
-1.52911e-18
1.06643e-19
1.51519e-19
-6.17351e-19
4.73598e-18
-1.88027e-18
-6.85902e-19
-1.85928e-18
-1.64511e-19
-3.18614e-18
-3.98566e-19
1.52053e-18
1.93823e-18
6.192e-20
2.01531e-18
-1.28882e-18
6.27185e-19
1.48233e-19
-2.50085e-19
-2.52999e-18
2.37223e-19
-2.32396e-18
-3.84177e-18
-2.87064e-18
1.83863e-18
1.86208e-18
1.16677e-18
-4.74459e-18
-4.99396e-19
1.01802e-18
-2.72857e-18
-2.78534e-18
-3.42683e-19
2.43013e-18
-2.72265e-18
2.64733e-20
4.30083e-19
6.86898e-19
-1.24019e-19
7.1205e-19
-5.59886e-18
2.68245e-18
2.27033e-19
6.38503e-19
-1.54223e-18
-7.54417e-19
9.20835e-20
-1.0134e-18
-4.33058e-19
-9.61977e-20
-2.78672e-18
-9.88778e-19
-1.20674e-18
3.68835e-18
3.77299e-18
-2.63265e-18
-1.42949e-18
-4.535e-19
2.56957e-18
2.77609e-19
-4.42608e-20
-1.92529e-18
-6.4804e-21
-1.11751e-18
4.04987e-19
-1.802e-18
1.45962e-18
-2.46374e-18
3.34305e-18
-4.19213e-18
5.32376e-19
-4.81897e-20
-1.27713e-18
-1.34295e-18
1.73269e-18
1.03248e-18
-1.1347e-18
5.27946e-19
5.55434e-19
-2.16667e-18
-2.90836e-18
-9.83298e-19
7.32185e-20
2.00307e-18
-3.09278e-20
5.69834e-19
2.06312e-18
-3.61972e-19
6.63912e-19
3.85842e-18
5.43997e-19
-7.65863e-19
-1.83959e-19
-3.37006e-19
1.22857e-19
1.20187e-19
-3.1306e-19
2.11631e-18
9.45748e-19
-4.80214e-19
1.55802e-18
-4.32895e-19
-3.30373e-19
-2.17916e-18
-2.93867e-19
1.50055e-18
1.30997e-18
-1.62637e-18
-1.21004e-20
2.00849e-18
-1.74341e-18
7.1751e-19
-4.05893e-19
2.92227e-19
-1.67064e-18
-5.31074e-19
-1.4205e-18
8.20234e-19
-4.1877e-19
-3.27311e-19
2.95125e-19
8.27111e-19
-8.49326e-20
-3.05521e-19
5.05583e-19
-1.47379e-18
-2.03665e-18
1.73003e-18
2.12793e-18
-2.83459e-18
2.03886e-18
1.9939e-18
2.94323e-18
3.16019e-18
-1.7922e-18
-1.28117e-18
-1.01044e-19
1.77878e-18
-3.9609e-19
1.87061e-19
3.06695e-19
-3.14055e-18
3.86982e-18
-1.85207e-20
3.82159e-19
6.24539e-19
8.35457e-19
-1.84694e-18
1.53783e-18
-1.21288e-18
-9.59988e-20
-1.7533e-18
2.49412e-20
3.22493e-19
-6.64511e-19
2.83942e-19
-1.2059e-18
2.6821e-18
4.27579e-18
-2.62569e-18
1.10384e-18
1.66551e-19
4.24522e-20
-1.63527e-18
-1.76119e-18
3.26001e-18
8.56892e-20
1.61614e-18
-3.96672e-19
2.59019e-18
-5.05497e-18
-3.77783e-18
-2.44087e-18
2.23886e-19
1.43575e-18
6.19922e-20
-2.62764e-18
6.80184e-19
2.27192e-18
3.81009e-19
-2.02587e-18
-3.17615e-19
2.9683e-18
1.44037e-18
-2.63274e-18
5.29076e-19
1.20293e-19
-3.47328e-18
-1.63216e-18
-6.82503e-19
1.84347e-18
-2.08328e-18
-7.38229e-20
-6.94674e-19
6.70476e-19
3.40959e-18
-2.18083e-18
-6.14617e-19
-2.5359e-18
1.68393e-18
9.32985e-19
3.22033e-18
1.55498e-20
1.97557e-18
-2.86089e-18
-3.38482e-19
1.8573e-18
5.64381e-19
1.63349e-18
-9.47471e-19
4.98679e-20
7.13331e-19
-1.52175e-18
3.19832e-19
6.72106e-19
4.4114e-19
-3.01505e-18
3.37756e-18
1.32006e-18
-1.29993e-18
-1.04954e-18
1.6861e-18
-1.0423e-18
-2.02207e-18
-1.35084e-18
-9.3377e-19
1.59005e-18
3.83057e-20
-2.26694e-19
4.44606e-20
1.12988e-18
-2.23082e-20
2.41794e-18
3.13066e-18
1.54201e-18
1.04631e-19
2.55883e-19
-7.25449e-20
9.31447e-19
-1.32052e-19
-2.98353e-19
5.99244e-19
4.70346e-19
9.67772e-19
-1.75421e-18
2.36935e-19
-1.84965e-18
1.7692e-18
-3.87165e-19
1.07091e-18
1.31315e-18
2.26422e-20
-2.54065e-19
1.22784e-18
-2.39936e-18
9.50067e-19
-9.71373e-19
6.31207e-20
4.27158e-18
2.25206e-18
-1.56059e-18
9.6788e-20
2.2625e-18
-2.00334e-19
1.85277e-18
-1.03563e-18
3.6097e-20
-2.67498e-19
-2.14352e-19
9.33018e-20
-7.31629e-19
-6.85395e-19
-7.59273e-19
-1.95627e-18
-6.62491e-19
-2.11638e-18
9.6375e-20
-7.92112e-19
-2.98766e-18
-9.96341e-19
-1.38509e-18
-1.95607e-18
-2.11128e-18
-2.06283e-19
1.73654e-20
-3.89761e-19
-7.22491e-19
2.3208e-18
-7.59066e-20
-1.12726e-18
-2.69658e-18
1.50644e-18
1.78278e-19
7.68492e-19
4.45865e-20
3.45397e-19
-1.13463e-18
3.23281e-18
-5.71259e-19
1.35087e-18
-1.00751e-18
-1.29861e-18
1.26728e-18
1.08693e-19
-4.39037e-19
1.83774e-18
1.3523e-18
-4.6726e-19
4.0721e-19
-4.67865e-19
-1.5739e-18
2.34324e-18
-1.61556e-18
-1.13241e-18
-1.02414e-18
1.49226e-18
6.69898e-19
-2.87903e-18
-1.15948e-19
6.84264e-19
8.10707e-20
-2.21584e-18
-6.09598e-19
6.83577e-19
1.41567e-19
1.87895e-19
-1.73844e-18
-4.28339e-18
-4.31515e-19
1.92468e-18
1.90607e-19
1.61157e-20
-2.12938e-18
-3.9136e-19
-1.58343e-18
1.68441e-19
-1.41442e-19
1.64991e-18
1.80237e-18
-8.77055e-19
-3.11579e-18
-1.66756e-18
-2.33192e-19
1.99805e-18
-3.55163e-20
1.1727e-19
-2.32883e-18
4.804e-18
-6.26426e-19
-4.07193e-18
1.45112e-18
3.64786e-18
-1.76807e-18
-5.43989e-19
-3.87734e-20
6.19008e-19
-1.42046e-18
1.23749e-18
1.87752e-18
-2.14502e-18
1.6949e-18
2.33579e-18
1.32165e-19
2.97221e-19
-3.14232e-19
1.72069e-18
8.56531e-19
-4.01559e-20
7.82155e-19
-1.16378e-19
1.55528e-19
-6.96263e-19
-9.50672e-19
-2.26562e-18
4.91707e-19
-1.01155e-18
1.11972e-18
-1.93546e-18
-2.14465e-18
4.72051e-19
1.72733e-18
-1.13057e-19
3.60105e-20
1.88667e-19
-1.29599e-20
3.73688e-19
-2.50942e-18
-1.66874e-18
1.91295e-18
4.14939e-19
3.36863e-18
-1.71517e-19
-1.87246e-18
-2.0576e-19
3.90149e-19
-2.39118e-18
2.63029e-19
6.45095e-19
-4.20187e-19
1.98042e-18
1.598e-18
5.98982e-19
-4.17505e-19
-3.37142e-19
3.07778e-18
4.57629e-19
6.70009e-19
-1.03676e-19
-3.4962e-19
-2.05745e-19
-2.16369e-19
-1.56219e-18
-1.61805e-18
1.10188e-18
3.69538e-19
-1.34212e-19
-2.89809e-19
6.86836e-19
-4.3643e-19
-1.15836e-20
-1.91584e-18
-1.33471e-18
3.03927e-19
7.16435e-19
4.3927e-19
2.44522e-18
2.2938e-19
2.53224e-18
-2.68329e-19
9.31154e-19
5.39643e-19
-1.64588e-18
1.02952e-18
-1.17666e-18
4.65474e-20
-1.67378e-18
-1.55897e-18
2.74132e-18
1.53625e-18
-1.98641e-18
-2.09996e-19
-1.15837e-18
1.56392e-18
1.57666e-18
1.79264e-18
-1.61429e-18
-1.50674e-18
-1.43672e-18
-1.75074e-18
2.73932e-18
-1.04191e-18
-1.30776e-18
-1.46842e-20
-5.6617e-19
-1.51788e-18
2.90438e-18
1.32453e-18
5.19477e-19
1.67996e-18
-4.6139e-19
-1.25602e-18
-1.32504e-18
-1.08064e-19
1.62467e-18
1.39126e-18
2.07682e-18
-4.68083e-19
1.63835e-18
-2.20744e-19
9.18707e-19
-9.14134e-20
-3.09801e-18
1.04167e-18
1.54432e-18
-1.48632e-18
-3.51847e-19
2.52823e-18
2.21702e-19
7.93203e-19
2.08566e-19
3.69058e-19
2.10251e-20
-1.51176e-18
1.44298e-20
1.12601e-18
-7.01668e-19
4.28482e-19
-8.83622e-19
8.63749e-19
5.49349e-19
-2.88985e-19
2.89549e-18
1.4966e-19
-1.60657e-18
3.47259e-19
3.33557e-19
-1.28318e-18
-7.58967e-19
2.98386e-19
1.93053e-20
-9.24467e-19
-1.15496e-18
8.63562e-19
1.41387e-19
-1.37792e-18
-1.71261e-18
2.40255e-18
-2.30863e-20
-1.76181e-18
-7.62994e-20
-1.46078e-18
-1.08824e-18
-1.23193e-18
-2.88391e-18
-2.84946e-18
-1.23748e-18
-6.61078e-19
-1.03272e-18
1.13918e-18
-6.95593e-20
-1.40159e-18
-6.58132e-20
7.34467e-20
-1.91546e-18
2.65638e-18
1.94826e-18
2.047e-18
1.34576e-18
-2.70909e-18
-7.0233e-21
2.21649e-19
9.76544e-20
-1.02399e-18
8.45812e-20
2.32835e-18
1.41034e-18
-1.55624e-18
-1.18618e-19
-1.23716e-18
3.03561e-20
1.15263e-18
-9.73515e-20
-7.90633e-19
-5.4548e-19
-2.4046e-18
-9.41893e-21
2.09646e-19
3.76606e-19
-1.06082e-18
-1.18897e-18
1.51897e-19
-3.32451e-19
-1.09965e-18
-1.26906e-18
1.15539e-19
1.17591e-18
-1.06901e-19
9.5145e-20
-1.30088e-18
3.6384e-19
-1.10285e-18
-1.55691e-18
3.41519e-19
-2.59544e-18
-1.2663e-18
-4.19869e-19
-5.5268e-19
1.53913e-19
3.99088e-20
-1.02471e-18
1.23222e-18
4.78181e-19
2.47292e-18
-1.9984e-19
-2.92298e-19
1.52807e-18
-1.0059e-18
9.93756e-19
-2.52541e-19
-5.78842e-20
2.3322e-18
1.56932e-19
-1.03452e-18
1.53248e-18
4.78373e-19
1.7151e-18
2.32094e-18
-2.3245e-18
-1.60621e-18
-1.74809e-19
-2.49275e-18
1.99249e-19
8.80798e-20
2.10911e-19
-1.41623e-18
-9.74506e-19
-1.13252e-19
8.34649e-20
1.62646e-18
1.48046e-18
7.95711e-19
1.21169e-18
-9.81982e-20
-1.53373e-18
1.97349e-18
1.1306e-18
6.2239e-19
-8.70312e-20
-3.13617e-19
-1.31785e-19
-2.06167e-20
4.1934e-19
-2.72623e-18
-1.40479e-18
5.86769e-19
2.30652e-19
2.41327e-18
2.48389e-18
-3.23755e-19
1.18602e-18
9.74616e-20
-7.18666e-19
-2.26642e-19
-1.17039e-18
-1.89157e-18
1.32334e-18
-1.24517e-18
-3.69146e-19
-2.52057e-19
2.59297e-18
2.02541e-18
-2.63792e-19
4.01129e-19
-5.21199e-19
2.25913e-18
-2.4443e-18
1.07406e-19
-3.38908e-20
1.9523e-18
-1.3028e-18
-9.26622e-20
-6.92622e-19
8.29188e-19
1.66208e-19
7.20503e-19
9.22877e-19
-2.37932e-20
-3.10548e-19
-2.65744e-18
9.33985e-19
-8.62678e-19
-1.78477e-18
-9.0588e-19
-9.69219e-19
2.8101e-18
-1.47643e-18
-4.29667e-19
1.43357e-18
-5.34415e-20
1.29828e-18
-7.74165e-19
1.95489e-19
-1.02939e-18
-8.37347e-19
2.59603e-18
1.87814e-19
-2.30878e-19
-5.04247e-19
8.27933e-20
-1.63577e-19
2.29135e-19
-5.15152e-19
-2.33239e-18
2.60174e-19
1.41883e-18
-4.96828e-22
3.63129e-19
-5.82621e-19
-6.70835e-20
-2.30135e-18
-1.06259e-19
1.27517e-18
-6.09697e-19
-1.49263e-18
-7.93782e-20
-1.32128e-18
2.17912e-19
-7.21365e-21
1.29395e-18
-5.95566e-20
9.77764e-19
1.22458e-18
2.25623e-19
-4.00924e-19
-6.35616e-19
-1.42852e-19
-2.98011e-20
-1.4536e-18
-4.12959e-19
1.28823e-18
3.47852e-19
2.05824e-19
-8.14574e-20
8.0427e-19
-8.36681e-20
3.89253e-19
8.55899e-19
2.02994e-19
-2.29488e-19
-1.5632e-18
-1.94313e-18
5.26766e-19
-2.4852e-21
5.89013e-19
-1.25349e-19
7.12902e-19
9.20295e-19
-1.08193e-20
3.26607e-20
3.10522e-19
7.95915e-19
1.07314e-19
-2.22428e-19
1.31305e-19
-4.9291e-20
-9.35707e-19
8.69621e-20
-1.98822e-19
-8.12746e-19
1.57347e-19
-6.81094e-19
1.93106e-19
-2.71498e-18
8.18587e-19
1.32155e-18
-3.04488e-19
7.90897e-19
-9.77985e-19
1.28444e-18
5.85341e-19
-1.16639e-18
1.27185e-18
-8.48984e-19
4.51554e-19
1.76768e-19
2.08868e-18
-4.12143e-19
-1.51741e-19
1.32534e-19
-1.78038e-18
-1.01012e-19
-6.11494e-19
1.49919e-18
3.7227e-19
-1.11806e-18
-1.24166e-18
1.25364e-18
4.83366e-20
5.299e-20
-1.88658e-19
-5.62488e-19
-8.6762e-19
2.00496e-18
2.21517e-19
1.17166e-18
-3.80031e-19
-1.38602e-18
1.22631e-19
-2.43795e-20
7.07313e-21
7.47998e-20
6.39666e-20
-1.28667e-18
1.31346e-19
1.03995e-19
-7.09607e-19
-3.38018e-19
1.88166e-18
-8.0433e-19
4.24933e-19
-9.82886e-19
-6.66174e-19
-1.63557e-18
1.07546e-18
3.26988e-19
-3.63161e-19
2.61243e-20
1.05623e-18
4.31546e-19
1.40154e-18
1.89065e-19
2.04029e-18
-6.57368e-20
-1.31849e-18
1.05364e-18
6.68963e-19
-1.18798e-18
-1.73857e-18
2.71305e-20
5.94694e-20
1.40525e-18
5.43754e-19
1.04021e-18
-1.50656e-20
-2.72001e-21
-9.70005e-19
5.57314e-19
-5.77643e-20
-1.00852e-18
-6.49079e-20
3.90049e-19
1.46095e-18
5.2237e-19
-9.68269e-19
2.77048e-19
-1.35508e-18
1.68824e-18
-7.28132e-19
-1.06664e-18
4.71806e-19
-1.11877e-18
-1.94856e-19
1.34909e-18
3.04015e-19
-6.93542e-19
-3.88841e-19
6.29875e-19
-3.30429e-19
-4.96401e-20
4.39591e-20
-3.16265e-22
9.97499e-19
7.96905e-19
9.80067e-19
-6.11486e-19
1.00315e-18
6.98899e-19
-6.73389e-20
-1.01928e-18
7.56121e-19
1.54896e-19
-1.21001e-20
-2.11808e-18
-2.97112e-19
-3.13124e-19
-9.19344e-19
-1.7942e-19
1.24148e-19
-3.5857e-20
1.06135e-18
-1.95851e-19
-1.62776e-19
-5.13016e-20
-1.30266e-18
1.70614e-19
2.27194e-19
-1.09014e-19
3.55915e-20
3.00763e-20
9.08201e-20
-7.01537e-19
9.1306e-19
4.57056e-20
3.66344e-19
8.35951e-19
6.81828e-20
-1.93452e-20
-2.50818e-19
1.47401e-20
-1.74171e-19
-2.53792e-20
2.90931e-19
-5.08283e-19
4.86215e-19
4.4207e-20
1.49443e-18
-8.29134e-19
6.648e-19
9.80774e-19
-9.45711e-22
3.75396e-20
2.32042e-19
-1.07611e-19
1.50031e-19
-1.12894e-18
1.19794e-20
3.01589e-19
-4.98115e-19
1.05266e-18
1.19083e-18
-3.77617e-19
-2.18023e-19
-1.30368e-19
8.53313e-19
-1.6888e-18
3.59631e-19
1.43743e-19
-1.51279e-18
-8.60136e-20
1.6996e-19
-8.27273e-19
4.25475e-19
-3.05554e-21
-3.10034e-21
9.89503e-19
4.63251e-19
-1.66103e-20
6.22971e-19
-9.10855e-19
1.39503e-20
6.61502e-19
-4.43706e-19
-3.97337e-20
5.28955e-19
1.25513e-18
5.92043e-19
-1.29947e-18
-1.3819e-18
7.22423e-19
-6.3198e-21
-6.8326e-19
-1.51289e-18
-4.77431e-19
6.96785e-19
5.78095e-20
-1.96933e-19
-6.01875e-19
-4.3859e-19
-1.23103e-18
1.55306e-18
8.33501e-19
-3.43534e-19
-4.06958e-19
6.87279e-20
-1.82593e-20
-2.72481e-19
-4.92093e-19
-9.51058e-19
-5.20033e-19
6.56393e-19
-8.99896e-21
-6.49709e-20
-4.1197e-20
-4.63377e-19
1.64291e-20
-4.18306e-19
5.40639e-21
6.3004e-19
6.49947e-19
-1.04871e-18
-6.17875e-19
2.27052e-19
9.40581e-19
-1.00103e-18
5.72985e-19
6.51428e-19
-7.18727e-19
-8.10829e-19
4.36392e-19
-7.00546e-19
-4.42907e-20
-5.8969e-19
-1.05567e-19
-8.43285e-21
1.53247e-18
1.10683e-18
2.74199e-20
-5.18336e-20
-6.46682e-19
7.42285e-19
7.01146e-20
-9.61187e-20
3.35533e-20
1.05363e-18
3.56086e-20
2.2624e-20
2.20544e-19
3.20445e-19
3.23885e-20
3.65889e-20
1.29375e-18
7.22127e-19
-3.16986e-19
-1.08688e-18
3.22626e-20
-1.09535e-20
-5.95301e-19
-7.36543e-19
-4.24918e-21
-5.31152e-22
2.12704e-20
-8.82025e-19
2.19374e-20
-3.34311e-19
5.51767e-19
-5.89368e-19
-7.59071e-21
7.57839e-19
1.93553e-21
-4.05298e-19