# vtk DataFile Version 2.0
feflo
ASCII
DATASET UNSTRUCTURED_GRID
POINTS 1485 double  
1 0 0 
20.5 0 0 
0.5 20 0 
-19.5 0 0 
0.5 -20 0 
0.980389 -0.00389417 0 
0.958255 -0.00699308 0 
0.933996 -0.0101594 0 
0.907507 -0.0135253 0 
0.878616 -0.0171014 0 
0.847919 -0.0207724 0 
0.817015 -0.024329 0 
0.786393 -0.0277255 0 
0.755813 -0.030995 0 
0.725302 -0.0341331 0 
0.694886 -0.037135 0 
0.664592 -0.0399954 0 
0.634448 -0.0427077 0 
0.60448 -0.0452642 0 
0.574717 -0.0476564 0 
0.54519 -0.0498749 0 
0.515929 -0.051908 0 
0.486967 -0.053744 0 
0.45834 -0.0553709 0 
0.430083 -0.0567761 0 
0.402236 -0.0579463 0 
0.374839 -0.0588675 0 
0.347935 -0.0595279 0 
0.32157 -0.0599139 0 
0.295791 -0.0600134 0 
0.270647 -0.0598164 0 
0.246188 -0.0593119 0 
0.222469 -0.0584916 0 
0.199541 -0.0573485 0 
0.17746 -0.0558763 0 
0.156282 -0.0540704 0 
0.136063 -0.0519269 0 
0.116862 -0.0494428 0 
0.0987367 -0.0466131 0 
0.0817502 -0.0434341 0 
0.0648093 -0.0396101 0 
0.0487934 -0.0351776 0 
0.033923 -0.0300095 0 
0.0204274 -0.0238295 0 
0.00994854 -0.0169954 0 
0.00263074 -0.00893662 0 
4.18498e-06 0.00035955 0 
0.00291522 0.00939587 0 
0.0103466 0.0173155 0 
0.0206119 0.0239287 0 
0.0332649 0.0297483 0 
0.0472228 0.0346881 0 
0.0622806 0.03897 0 
0.0783338 0.0427212 0 
0.0953226 0.0460188 0 
0.112544 0.0488151 0 
0.13048 0.0512532 0 
0.149436 0.0533938 0 
0.169365 0.0552351 0 
0.190221 0.0567744 0 
0.211957 0.0580129 0 
0.234524 0.0589518 0 
0.257876 0.0595938 0 
0.281965 0.0599432 0 
0.306743 0.0600065 0 
0.332164 0.0597917 0 
0.358183 0.0593065 0 
0.384754 0.0585619 0 
0.411834 0.0575684 0 
0.439383 0.0563368 0 
0.46736 0.0548795 0 
0.495728 0.0532081 0 
0.524449 0.0513338 0 
0.55349 0.0492676 0 
0.582817 0.0470204 0 
0.6124 0.0446025 0 
0.642208 0.0420227 0 
0.672212 0.0392884 0 
0.702384 0.0364069 0 
0.732698 0.0333839 0 
0.763127 0.0302242 0 
0.793644 0.0269322 0 
0.824223 0.0235114 0 
0.854837 0.0199574 0 
0.885879 0.0162128 0 
0.916179 0.0124318 0 
0.944271 0.00883291 0 
0.962925 0.00636583 0 
0.981559 0.00370866 0 
20.0259 4.21764 0 
18.6179 8.49578 0 
16.185 12.4045 0 
13.0838 15.5419 0 
9.35278 17.9432 0 
5.04558 19.4615 0 
-3.75217 19.5194 0 
-8.04267 18.0954 0 
-11.9557 15.6445 0 
-15.09 12.524 0 
-17.4673 8.80459 0 
-18.9668 4.51943 0 
-19.0265 -4.21418 0 
-17.6208 -8.48963 0 
-15.191 -12.3969 0 
-12.0934 -15.5342 0 
-8.37276 -17.9332 0 
-4.05643 -19.4592 0 
4.75217 -19.5194 0 
9.05051 -18.0917 0 
12.9689 -15.634 0 
16.1055 -12.5046 0 
18.4807 -8.7778 0 
19.9698 -4.50491 0 
-0.00593567 -0.00755492 0 
-0.00793343 0.00412449 0 
-0.000158761 -0.0185832 0 
-0.00782784 0.0164361 0 
-0.0171479 -0.00411814 0 
0.00157713 0.0220361 0 
0.00903187 -0.0284153 0 
0.0103536 0.0290092 0 
-0.0188177 0.0104137 0 
-0.0122544 -0.0180979 0 
-0.006716 0.0276294 0 
0.000551567 0.0324616 0 
-0.0040281 -0.0310853 0 
0.0209757 -0.0369395 0 
0.0210695 0.0365986 0 
-0.01736 0.0253479 0 
-0.0305684 0.00166772 0 
-0.0265002 -0.0153271 0 
0.00694916 -0.0424824 0 
0.00766612 0.041417 0 
0.0198953 0.0512956 0 
0.0352135 -0.0443506 0 
0.0341884 0.0438408 0 
0.0201969 -0.0523251 0 
-0.019117 -0.031608 0 
-0.0313843 0.0190442 0 
-0.00988086 0.0418399 0 
0.0513085 -0.0507638 0 
0.0490906 0.0502703 0 
0.0344208 0.0602636 0 
-0.00878033 -0.0463643 0 
0.00360901 0.0565337 0 
0.0357676 -0.0610128 0 
0.00375334 -0.0590852 0 
-0.0430832 -0.0102468 0 
0.0686748 -0.056255 0 
0.0654304 0.0557983 0 
-0.0365677 -0.0297729 0 
-0.0287273 0.0368061 0 
0.0827291 0.0603752 0 
-0.0463626 0.00967771 0 
0.104832 -0.0649598 0 
0.0865505 -0.0609148 0 
0.0176749 0.0686207 0 
0.0183649 -0.0702629 0 
0.050966 0.0681383 0 
0.0535217 -0.0686277 0 
0.100466 0.0642269 0 
0.123878 -0.0686113 0 
-0.0268522 -0.0482131 0 
-0.0462928 0.0300765 0 
-0.0123911 0.0604287 0 
0.0689817 0.0746214 0 
0.118558 0.0677039 0 
0.0723392 -0.0750579 0 
-0.0245614 0.0531805 0 
-0.0625149 -0.00310633 0 
0.0342861 0.0795023 0 
-0.0146211 -0.064417 0 
0.0356536 -0.0804307 0 
0.143889 -0.071915 0 
-0.00209296 0.07457 0 
-0.000675416 -0.0783464 0 
-0.0567832 -0.0256202 0 
0.995784 0.0198596 0 
0.137367 0.070913 0 
0.0873514 0.0792806 0 
0.16489 -0.0748555 0 
0.091211 -0.0805475 0 
-0.0478252 -0.0476875 0 
-0.041956 0.0512987 0 
0.157096 0.0738305 0 
0.014652 0.089291 0 
0.186844 -0.0773842 0 
-0.0651778 0.0198283 0 
0.0154848 -0.0912141 0 
0.10541 0.0836177 0 
0.05311 0.0888522 0 
0.11026 -0.0855975 0 
0.0553622 -0.0892813 0 
0.977634 0.020729 0 
0.177772 0.0764222 0 
0.209642 -0.0794003 0 
-0.0357301 -0.0680377 0 
0.998608 -0.0198122 0 
-0.0287136 0.0750623 0 
0.199357 0.0786702 0 
0.123994 0.0878177 0 
0.130145 -0.0902036 0 
-0.0641098 0.0438459 0 
0.233158 -0.0810305 0 
-0.0215245 -0.0849227 0 
0.0737085 0.0956859 0 
0.0754712 -0.0960891 0 
0.0339582 0.102386 0 
0.2218 0.0805698 0 
0.960885 0.0293626 0 
1.01689 0.0148471 0 
1.01923 -0.00808257 0 
-0.0802841 -0.0194517 0 
0.0350779 -0.103289 0 
0.143442 0.0918578 0 
0.257426 -0.0824137 0 
0.151032 -0.0943109 0 
-0.00860714 0.096477 0 
-0.0854506 0.0059029 0 
-0.0722019 -0.044704 0 
0.245048 0.0821224 0 
-0.00656118 -0.100094 0 
1.01854 -0.0296975 0 
0.282469 -0.0834852 0 
0.975995 -0.0274479 0 
1.04081 0.0070534 0 
0.0920193 0.0970721 0 
0.0945171 -0.102563 0 
0.269052 0.0833313 0 
0.163892 0.0955669 0 
0.172906 -0.0980144 0 
0.308196 -0.0842148 0 
-0.0605722 -0.0694564 0 
-0.0578157 0.0691635 0 
0.293763 0.0842035 0 
0.0108988 0.11418 0 
1.01128 0.0346262 0 
0.935195 0.0368791 0 
0.334535 -0.0846039 0 
0.185317 0.0989621 0 
0.109053 0.105057 0 
0.0113602 -0.115869 0 
1.04156 -0.0209112 0 
0.319133 0.0847465 0 
0.0562708 0.113296 0 
0.114217 -0.109374 0 
0.195851 -0.10104 0 
0.0576207 -0.112961 0 
-0.0875943 0.0324783 0 
0.361429 -0.0846646 0 
0.345114 0.0849706 0 
0.951502 -0.0332249 0 
0.207643 0.101921 0 
0.388829 -0.0844105 0 
-0.0450508 -0.0915955 0 
0.219281 -0.102893 0 
0.371661 0.0848857 0 
1.03499 0.0339289 0 
-0.0311194 0.101958 0 
0.128857 0.106841 0 
0.41669 -0.0838571 0 
0.13544 -0.114457 0 
0.398729 0.0845046 0 
-0.107356 -0.0115033 0 
0.23082 0.104526 0 
0.44497 -0.0830188 0 
0.084996 0.1205 0 
0.243029 -0.105036 0 
0.426275 0.0838392 0 
-0.0493228 0.0921814 0 
-0.0849045 0.0614242 0 
-0.028004 -0.10527 0 
0.0778923 -0.116411 0 
0.988397 0.0438503 0 
0.47363 -0.0819117 0 
0.0335468 0.129805 0 
0.905447 0.0427591 0 
0.454258 0.0829033 0 
-0.100313 -0.0393385 0 
0.034957 -0.130627 0 
0.254761 0.106686 0 
0.147832 0.115032 0 
0.50263 -0.0805503 0 
0.482639 0.08171 0 
-0.0899307 -0.0679014 0 
0.157163 -0.119289 0 
0.267829 -0.107014 0 
1.03492 -0.0497169 0 
0.531936 -0.0789494 0 
0.999503 -0.0489236 0 
0.925349 -0.0394861 0 
0.511382 0.0802728 0 
0.561514 -0.0771224 0 
0.279441 0.108493 0 
-0.0166185 0.122636 0 
0.540451 0.0786043 0 
1.06877 -0.00542181 0 
0.591334 -0.0750829 0 
0.569812 0.0767173 0 
0.293477 -0.10869 0 
-0.112357 0.0168625 0 
-0.0161239 -0.124655 0 
0.0941939 -0.127829 0 
0.621364 -0.0728423 0 
0.169964 0.116122 0 
0.599435 0.0746232 0 
1.06492 0.0269625 0 
0.651577 -0.0704118 0 
0.62929 0.0723331 0 
0.304781 0.109876 0 
0.180301 -0.123613 0 
0.681944 -0.0678011 0 
0.659349 0.069856 0 
0.71244 -0.0650211 0 
0.319804 -0.109935 0 
0.689582 0.0672008 0 
0.874465 0.0475734 0 
0.743042 -0.0620911 0 
0.719965 0.0643765 0 
0.773775 -0.0590523 0 
0.750471 0.0614012 0 
-0.0747105 -0.0963273 0 
0.804747 -0.055957 0 
0.781105 0.0583256 0 
0.835874 -0.0525389 0 
0.811991 0.0552027 0 
0.330763 0.11092 0 
0.896624 -0.0443025 0 
0.191114 0.124001 0 
-0.0747732 0.0921198 0 
0.866644 -0.0484988 0 
0.346728 -0.110827 0 
0.0064948 0.14437 0 
0.11999 0.131994 0 
0.843181 0.0517149 0 
0.205334 -0.126455 0 
0.00616621 -0.145867 0 
0.117903 -0.136631 0 
0.35731 0.111568 0 
0.0593191 0.1424 0 
0.0653318 -0.141188 0 
0.37416 -0.111311 0 
1.02069 0.0583871 0 
1.06805 -0.0390695 0 
0.970416 -0.0509877 0 
0.384404 0.111897 0 
0.215171 0.123908 0 
0.402078 -0.111469 0 
-0.114036 0.0485852 0 
-0.0506586 -0.123994 0 
0.227908 -0.124846 0 
-0.0516029 0.121861 0 
0.411974 0.111863 0 
0.430411 -0.111259 0 
-0.137024 -0.00219084 0 
0.140332 -0.137871 0 
0.440003 0.111534 0 
1.0558 0.0594068 0 
0.238165 0.13126 0 
0.960011 0.0602247 0 
0.459143 -0.110754 0 
0.251222 -0.131845 0 
-0.1314 -0.0312293 0 
0.468426 0.110877 0 
0.488211 -0.109921 0 
0.497229 0.109951 0 
0.263685 0.129891 0 
0.517603 -0.108822 0 
0.0340222 0.162277 0 
-0.108426 0.084956 0 
0.160795 0.144175 0 
-0.110954 -0.0959555 0 
-0.123742 -0.0626441 0 
0.526353 0.108731 0 
0.0884704 0.155713 0 
0.277332 -0.130318 0 
0.54726 -0.107433 0 
0.161883 -0.147716 0 
0.0352716 -0.163972 0 
0.555785 0.107268 0 
1.09852 0.0148044 0 
0.577174 -0.105806 0 
0.947399 -0.0640404 0 
0.585475 0.105543 0 
0.288238 0.136662 0 
0.607292 -0.103922 0 
0.615411 0.103599 0 
1.06166 -0.0758497 0 
0.302835 -0.137011 0 
0.637605 -0.101823 0 
0.645546 0.101419 0 
0.0932662 -0.158434 0 
0.668067 -0.0994966 0 
0.675874 0.0990387 0 
-0.0272135 0.155286 0 
0.69866 -0.0969847 0 
0.706348 0.0964481 0 
0.314965 0.134088 0 
0.729348 -0.0942932 0 
0.736958 0.0936903 0 
0.895337 0.0766645 0 
0.188681 -0.148279 0 
0.760153 -0.0915386 0 
0.767675 0.0908232 0 
0.79135 -0.088857 0 
0.798637 0.0881203 0 
-0.0283081 -0.156683 0 
0.330524 -0.134268 0 
1.10131 -0.0214481 0 
0.823617 -0.0864547 0 
0.927957 0.0703164 0 
0.86319 0.081666 0 
0.830656 0.0858153 0 
0.855642 -0.0820786 0 
0.885881 -0.0758645 0 
1.09317 0.0514121 0 
-0.144136 0.0292586 0 
1.02054 -0.0827153 0 
0.340865 0.14028 0 
0.916681 -0.0722366 0 
-0.0926218 -0.129587 0 
-0.0925507 0.123877 0 
0.357348 -0.140349 0 
0.206789 0.155126 0 
0.368619 0.136607 0 
0.22099 -0.155782 0 
0.00268501 0.181454 0 
0.129528 -0.169415 0 
0.385962 -0.136462 0 
0.061316 0.17165 0 
0.124071 0.172382 0 
0.395674 0.142241 0 
0.00126335 -0.183428 0 
0.994614 0.0822086 0 
0.0646194 -0.174079 0 
0.413821 -0.14196 0 
0.424283 0.137574 0 
0.443159 -0.137065 0 
0.979675 -0.0797856 0 
1.1011 -0.0605803 0 
1.03769 0.0940591 0 
0.452311 0.142678 0 
-0.160112 -0.0203048 0 
-0.145795 0.0694768 0 
[...]
CELL_DATA 2857
SCALARS scalars float 1 
 LOOKUP_TABLE default
0.766049
1.04242
0.761474
0.850387
1.01887
1.0567
1.02979
0.971262
0.794196
0.911165
0.97646
1.03959
1.01865
1.03881
1.04183
0.853799
1.04537
0.962834
0.975483
1.03001
1.02133
0.980485
0.996759
1.03897
1.03381
0.961472
1.03486
1.04848
0.983241
0.92966
0.979218
0.895142
0.960113
1.05693
0.951331
0.957656
0.980463
1.01816
1.03823
1.04301
1.03027
0.997489
0.916778
1.03559
0.942192
1.05434
1.01746
0.953866
0.966808
0.97882
0.947963
0.973968
1.01314
0.951492
1.04659
0.959107
1.0485
0.929566
1.06188
1.03036
0.94691
1.05674
0.97263
0.977599
1.02819
1.05153
0.978841
0.937837
1.00992
0.976555
1.01386
0.979631
1.00641
0.96456
0.983385
0.979661
0.958206
0.943656
1.06524
0.979577
0.946916
0.960191
1.06698
1.00893
1.01222
1.0317
1.0712
0.979225
1.03129
0.982079
0.980626
1.04186
1.03757
0.983409
1.04467
0.967693
0.978447
0.981531
1.03112
0.980717
1.02542
0.933755
1.05654
0.999545
1.05796
0.984087
0.979414
0.957604
0.956123
0.927581
1.03248
1.00524
1.06535
1.06188
1.02502
0.992979
0.98351
0.98153
0.985737
1.03452
1.05856
0.981948
0.979034
1.03613
0.968829
1.00431
0.937327
0.985181
0.958276
1.03589
0.950892
0.944391
1.06525
0.987076
1.02667
0.999639
1.07022
0.980231
0.963019
1.01482
1.00477
0.946663
1.02866
0.979031
0.937588
0.991032
1.03044
0.986581
1.0035
1.07553
1.03771
0.988119
1.0487
0.954851
0.993148
1.00672
0.985193
0.979133
0.987751
0.979827
0.978007
1.00392
0.975813
1.00276
1.04916
0.988994
1.05726
0.963035
1.03278
0.991232
0.926124
0.988736
0.993371
0.974386
0.982173
0.984918
1.02161
1.06146
0.979265
0.954365
0.946515
0.979834
0.98979
1.0056
0.918307
1.03254
0.988174
1.00205
1.0032
0.948168
1.06893
1.012
1.03056
0.989572
1.06745
0.986518
0.979411
0.990486
0.993545
0.985897
0.950349
0.998597
1.00611
1.0569
1.00156
0.990284
0.979909
0.954932
0.95889
1.01237
1.00254
1.00457
0.991083
1.0402
0.979562
1.02538
0.965078
0.969645
0.990895
1.07137
0.92257
1.0079
1.00125
0.938985
0.97379
0.994347
0.991595
0.980063
0.958466
1.07019
0.98802
0.99142
1.03142
0.956092
1.00494
1.0019
0.955757
0.979713
0.943485
1.02856
0.990553
1.0038
0.992037
1.02833
1.00091
1.04048
0.991876
0.933864
0.994037
1.00301
0.977687
0.98019
0.988215
0.979862
0.992418
1.07608
1.04796
0.928311
1.00149
0.99227
1.00749
0.987519
1.00058
0.959803
0.956635
0.950403
0.992749
1.00414
1.00287
0.992613
1.01376
1.0212
0.980005
0.980363
0.960943
0.993037
1.0003
0.945587
1.00119
1.0456
0.992914
0.96997
0.972146
1.07322
1.00845
0.999001
0.980138
0.993288
0.925443
0.994718
0.957329
0.993176
0.924946
1.02588
1.05906
0.980497
1.00004
0.959716
0.993508
1.00171
1.00508
0.947359
0.993406
1.03293
0.919092
1.00418
0.994277
1.00346
1.00087
1.00089
0.980263
0.993702
1.00839
1.06769
0.994604
0.993609
1.01547
0.999822
0.981976
0.993872
0.98066
0.944968
0.993788
0.982384
0.958061
0.980376
0.967505
0.994023
0.925426
1.06703
0.993946
1.00056
1.00247
1.06647
0.999627
1.00191
1.00663
0.994156
0.952447
0.994086
0.977316
0.980479
0.931975
0.990411
1.01416
0.994275
0.994211
0.980786
1.00262
1.01329
0.994382
1.0046
0.999453
0.994323
0.926733
0.994479
0.958617
1.00028
0.994423
0.980571
0.994842
0.994569
0.994513
1.02644
0.994661
0.990102
0.994597
1.03634
0.994766
0.999299
0.994685
1.00165
0.99484
0.994788
0.980929
1.01321
0.994785
0.980652
0.961297
1.08294
0.968105
0.994826
0.980942
1.00004
0.99916
0.939119
0.948123
0.994857
0.980722
0.959237
1.00157
0.930018
1.06358
1.00443
0.981038
0.959966
0.957896
0.999036
1.03356
0.976475
1.00309
0.996532
1.0363
0.980781
1.00131
0.940204
1.00377
0.99983
0.968513
0.998923
1.00662
1.00061
0.98083
1.01522
0.981159
0.954209
0.99882
0.959719
0.980868
0.999642
0.985618
1.04809
0.998725
1.00209
1.00092
0.936193
0.980895
0.970504
0.981249
1.00697
0.998636
0.935537
0.980911
0.931552
0.992069
0.999475
0.998553
1.01295
1.06721
1.01265
0.980915
0.99544
0.960245
1.0204
0.998475
1.00486
1.00229
0.981347
0.981023
0.980907
0.96264
0.99526
0.998408
0.98089
1.00063
0.997405
0.998365
0.999327
0.980893
0.99836
0.981002
0.998211
0.970156
1.0015
0.981081
1.02296
0.997837
0.997852
0.981418
1.01271
1.01307
0.960652
0.965178
0.999194
0.990502
1.03974
1.02703
0.981493
0.933435
1.00033
0.955642
0.999075
1.05789
0.928614
0.978357
0.985159
0.951918
1.0291
1.02781
0.981544
0.998443
0.961088
1.00117
0.950419
0.95898
1.00141
0.963683
0.998966
1.00332
1.05276
0.981597
0.919287
0.980761
0.998867
1.05489
1.01216
0.962468
0.98163
0.96376
0.961421
1.0001
0.998775
0.93799
0.981661
0.999868
1.00812
1.00083
0.998691
0.981674
1.006
1.00828
0.99861
0.961773
1.01545
0.935854
0.981683
0.949651
0.998536
0.992215
0.981675
0.956834
0.99969
1.02361
0.998471
0.981666
0.997627
1.00235
0.998434
0.981679
0.962039
0.998438
0.981897
1.05508
1.00068
1.00843
0.993532
0.998337
0.935691
0.996946
0.997996
0.982497
0.997983
1.01257
0.973187
1.00619
1.01221
0.999504
1.00585
1.05288
0.957799
0.962319
0.964683
0.998792
1.012
0.999361
1.02921
0.987258
1.0003
1.0291
0.954515
0.962523
1.02683
0.99921
0.939888
0.957815
0.984605
0.998846
0.962738
0.94325
1.00084
0.999092
1.00011
1.00495
1.03582
1.03328
0.94023
0.964614
0.962888
0.989578
1.00042
0.998967
0.965433
0.920517
1.05542
0.963046
0.968402
0.965019
0.938557
0.937503
0.980595
0.998866
1.05678
0.999881
0.971874
0.963145
0.994987
0.998759
0.958608
0.96325
0.998074
1.00343
0.998675
1.02112
0.9633
0.999667
1.02145
1.00692
0.998594
0.963355
1.06633
0.975797
0.974023
0.980597
1.00505
0.998577
0.941488
0.966034
0.963409
0.998647
0.997624
0.963765
1.02469
0.99885
0.965304
0.993975
0.997908
1.00441
0.956231
0.999554
1.00685
1.01217
1.01097
0.98281
0.944056
1.00408
0.959237
0.99915
0.999314
1.05581
0.939049
0.978553
0.966505
1.00062
1.03997
0.96905
1.00636
1.00154
1.02475
0.997491
0.999291
1.0237
0.940591
1.03868
0.959724
0.986145
0.992048
0.942821
0.999025
0.969986
1.02967
0.966863
1.00274
0.966203
1.00343
0.999073
1.00028
0.960083
1.02756
0.964869
0.942473
0.998782
0.939478
0.940331
1.00299
0.967119
0.957542
0.978364
0.967915
0.998887
0.910463
0.968685
0.960327
0.997047
0.998576
1.00481
0.998653
1.02587
1.04247
0.967284
1.05882
0.975716
0.943902
0.998739
0.960463
0.998472
1.02005
0.967414
0.998795
1.00291
0.997777
0.960871
0.94231
0.998789
1.03349
0.969347
1.00381
0.998361
0.984398
1.01224
1.01341
0.983008
0.941361
1.01045
1.00315
1.0016
0.996697
1.01202
0.944759
1.02948
0.956564
0.958611
1.00249
0.997097
0.966885
0.996062
0.942167
0.998248
1.04529
1.01745
0.971808
0.996413
1.00188
0.945422
0.943748
1.00054
0.974591
1.01606
1.00215
1.0301
1.00109
1.01041
0.942778
1.00071
0.968072
1.03566
0.979217
1.02845
0.957248
0.973903
0.996171
1.04572
0.976501
0.992691
0.945917
0.959477
1.00186
1.00188
0.943219
0.997939
0.993702
0.960894
0.995962
1.0366
0.955738
0.934483
0.946278
0.944916
1.00167
0.943513
1.00313
0.970788
0.967472
1.00408
0.995863
1.02205
0.946513
1.00003
0.963419
1.0018
0.966503
0.943923
1.04379
0.995993
0.996551
1.01337
0.947804
0.983539
1.00256
1.00112
0.960167
0.97093
1.00372
1.01464
0.96931
0.997695
1.00551
1.02027
0.945848
1.02398
0.982747
0.999481
1.02213
0.960709
1.01049
0.979642
0.997769
0.959547
0.997497
0.976609
0.948398
0.946579
1.00118
1.02044
0.999034
1.00056
0.961122
1.02485
1.04905
0.997324
0.968008
0.977765
1.02374
0.947138
0.972915
0.998651
0.961426
0.997537
1.00497
1.00413
1.01734
0.997163
0.981371
0.97121
1.03085
0.965868
0.947552
1.0392
0.998353
0.968461
0.98138
0.961656
0.9673
0.997092
0.992213
0.947795
1.00226
1.00013
0.998393
0.979971
0.964537
0.961718
0.958051
0.997549
1.03142
0.948602
0.982502
0.999779
0.975814
1.01086
1.01412
0.938722
1.0007
0.972988
1.00338
1.00381
0.965494
0.968824
0.9689
1.0441
0.973743
0.999786
0.985994
1.00882
1.00282
1.02292
1.02586
1.01159
0.980252
0.945196
0.969105
0.976312
0.971253
0.999488
1.01959
1.00035
1.01328
0.985811
0.980606
0.958496
1.00144
0.969325
1.04961
0.999218
1.02387
1.04138
0.972652
1.03143
1.02161
0.96953
0.980477
0.999153
0.967577
0.973467
0.969588
1.00008
1.00427
1.00319
0.999604
0.980645
0.968135
0.974269
0.99983
0.968022
1.00206
0.95929
1.00338
1.03475
1.02696
1.04126
0.971413
0.976136
0.973011
0.969978
0.997267
1.03542
0.980664
0.943009
1.00091
1.00216
0.982506
0.966915
0.999865
1.00456
0.969132
1.00306
1.00562
1.0526
0.98082
1.0204
0.971576
0.971401
0.999676
0.987301
1.0073
1.01353
0.950739
0.971646
0.973408
1.00718
0.98887
0.980944
1.00051
0.999501
1.00134
1.01081
1.01959
0.981032
1.02735
1.04106
0.953212
0.999437
0.980776
0.975257
0.999724
0.987889
0.971878
0.982177
0.977615
1.04405
0.987555
1.01673
0.980636
1.0002
0.966236
0.973439
0.964932
1.00495
1.00217
0.967984
0.980741
1.00857
0.99343
1.00299
1.03416
0.972096
1.00084
1.03481
0.981066
1.031
0.999941
0.969035
0.983924
0.972014
0.947729
1.02208
0.967499
1.03473
1.0027
0.972289
1.00376
0.999645
1.00544
1.04396
0.973434
0.976309
1.02405
0.968052
0.979194
0.987247
1.02216
0.972526
1.00048
1.01184
0.965473
0.999267
1.01042
0.984297
0.972949
1.00148
0.999493
1.01567
1.02074
1.02601
1.03142
0.977597
0.964882
1.00492
0.973462
1.01143
0.978245
0.985984
0.972324
1.00019
0.991597
0.974535
1.03545
0.970751
0.977386
0.975377
1.0299
0.97362
0.965112
1.00191
0.999944
1.00501
0.994741
1.01236
0.992158
1.00092
0.964993
1.02829
0.977113
1.02558
1.03557
0.973801
1.03158
0.966754
0.974721
1.01809
0.999665
0.976115
1.00283
0.983962
1.00449
0.974044
1.03332
0.964928
0.999299
1.02244
0.96971
0.974391
1.00054
0.974557
0.99941
0.981257
0.987448
1.01798
0.97969
1.0013
1.02203
0.990198
1.00021
1.03229
1.00499
1.00463
0.965038
0.971203
1.00026
1.00339
0.980329
1.00897
0.976343
0.992484
0.963819
1.02007
0.979405
0.968314
0.968913
1.03338
0.982225
0.965312
0.999927
1.002
1.00083
1.03054
1.00405
0.965603
1.03454
0.97307
0.972191
1.02801
0.991248
0.999328
0.981849
0.973211
1.02861
1.00245
1.02947
0.967597
0.966233
0.972954
0.997598
1.00367
1.0005
1.01815
0.98518
0.971736
1.01044
1.00672
0.962073
1.00602
0.979116
0.981445
0.976332
0.983005
0.977861
0.976839
1.00877
0.974237
1.00129
1.02934
0.983985
0.967546
1.03395
1.00352
1.00016
1.00024
1.00335
1.02633
0.987213
1.00489
0.96779
0.969111
1.00926
0.999933
0.95995
0.978564
0.975403
0.995254
1.00172
1.00064
0.968141
0.977189
1.03543
0.999402
0.968806
1.03345
0.995487
0.992909
0.966079
1.00282
0.976072
0.998187
1.01001
0.973946
1.00456
0.979555
1.02091
0.974171
0.958783
1.02636
1.0026
1.01653
0.983315
0.999023
1.00055
0.977997
1.02619
1.02949
0.966487
0.968827
0.974884
0.963435
1.00273
0.986894
0.982594
1.02092
0.971704
1.00114
1.0256
0.978203
0.982011
0.959428
0.987128
1.01257
1.00028
0.996146
1.02771
0.959982
0.963808
1.00575
0.961948
0.999885
1.00058
1.00762
0.982474
1.00152
0.96053
0.983263
0.998965
0.987482
0.982347
0.976416
1.03223
1.00873
0.965843
0.979822
0.970227
0.955268
0.975331
1.00309
1.02159
1.00286
1.00323
0.968137
1.00579
1.00059
0.966407
0.983849
0.989756
1.00217
1.02087
1.01989
1.00355
0.96373
0.959593
1.01996
0.980376
1.00793
1.02103
0.963666
1.00083
0.965173
1.00025
1.02019
0.968952
0.987442
0.982928
0.973435
0.984888
0.992489
1.01776
0.957057
0.987862
1.02026
0.99988
1.01452
0.996728
0.967776
0.947117
1.00472
0.965044
0.984044
0.979594
0.999185
0.999323
1.00128
0.963745
1.00449
0.982206
1.00898
0.978575
1.01431
1.00225
0.96668
1.0069
0.981036
0.965953
0.951708
1.00196
0.979061
0.963008
0.991606
1.00198
1.01939
1.01961
1.00239
0.983061
0.959028
1.01926
0.99933
1.0159
0.975789
1.00971
1.02
1.00084
0.952322
0.964842
1.01445
0.999197
0.982271
1.01975
0.977551
1.01989
0.983213
0.987763
0.982396
0.954227
1.00563
1.00136
1.00044
0.992341
0.961696
0.956783
0.958464
0.9995
1.00208
1.01865
0.99469
0.9874
1.00001
0.968631
1.00735
1.01006
0.961792
1.00568
1.01157
0.959067
0.974208
0.985191
1.00767
0.972097
0.978995
1.00099
1.01454
0.985623
0.990551
1.01498
0.98656
1.01984
0.963436
0.964192
0.967034
0.98964
1.01335
0.986477
1.0129
1.01037
0.999437
1.00139
1.00833
0.972284
1.01574
1.00528
1.01613
0.961744
0.987415
1.0005
0.984822
1.01455
0.986237
0.986556
0.971593
0.971579
1.00186
1.01085
1.0067
1.00612
0.967186
1.00455
0.989834
1.00054
0.977383
0.988986
1
0.974632
0.986934
0.995673
1.0114
1.00085
0.986476
0.977833
0.977407
0.975643
0.984164
1.01644
1.00977
1.01912
1.00936
0.968013
0.973002
1.00118
0.987368
0.999735
1.01102
0.991396
1.00091
1.01529
0.980381
0.986219
1.00243
0.982372
1.01293
1.00995
1.01304
0.98765
1.00465
0.988042
0.984877
0.980726
0.988791
1.00709
1.01407
1.01068
1.00444
0.985316
0.986234
1.01189
1.00054
0.98439
0.984843
0.981898
0.98567
1.01091
0.991898
1.00337
0.994147
1.00815
1.01229
0.984882
1.0012
0.983056
0.988536
0.989858
1.01469
1.01969
0.986339
1.00077
1.00311
1.00782
0.987771
0.989319
0.99979
1.00179
1.01282
0.99
1.0101
0.988321
0.986883
1.01158
1.00355
0.987145
1.00557
0.985532
0.990792
1.01459
0.990443
1.00762
1.00534
1.00172
0.988198
0.988167
1.01169
0.985202
1.00792
0.986039
1.00164
1.00951
0.991802
0.987767
0.987771
0.994966
1.01887
0.987533
0.991254
0.990607
1.00101
0.987857
0.986619
1.00997
0.989511
1.00965
0.979993
1.01739
0.986514
1.00085
0.999866
0.983368
1.01063
1.00354
1.00851
0.991262
1.00522
0.997485
0.983868
0.988174
0.989469
1.01216
1.01188
0.986418
0.981601
1.00492
0.993653
1.01238
1.00422
0.989645
0.9866
1.00734
1.00169
1.00148
0.987132
0.988611
0.999915
0.991569
1.00103
1.01458
1.01304
1.01058
1.01356
0.985148
0.993116
0.988111
1.00176
0.983613
0.983046
0.991032
1.00287
0.991672
1.00414
1.0081
0.989217
1.0148
0.978002
1.00096
1.01221
0.993399
0.993566
1.00661
0.990332
0.979418
0.985236
0.992111
1.00834
0.997344
1.00364
1.01064
0.989693
1.00846
0.985276
0.990372
0.99567
0.98228
1.01225
1.00534
0.989692
1.01321
1.00432
1.00297
0.989203
0.990732
0.999446
0.999916
0.996126
1.00865
1.0115
1.01226
0.996099
0.987168
0.99401
0.991539
0.976067
1.00154
1.0042
0.984973
1.01271
0.985692
1.00424
0.989365
0.989043
1.00239
1.01023
0.994565
0.98287
1.00976
1.00879
0.989951
0.978566
0.98862
1.00434
1.00674
0.980861
1.00876
1.01128
0.995442
1.00638
0.989836
0.984852
1.00248
0.99993
0.990809
0.99111
0.991627
1.00468
1.0111
1.00351
0.988497
1.00342
0.999589
0.990023
0.978807
1.00101
0.984107
1.00991
0.992075
1.01302
0.977328
0.990898
1.00278
0.986193
0.992988
1.00351
1.0108
0.98855
1.00102
0.989405
0.991835
1.0114
1.00023
1.00084
0.978924
1.00649
0.992015
0.990727
0.979398
0.990194
0.992473
1.00399
1.01353
1.00476
1.00542
0.999571
1.0096
1.00779
0.982442
0.994455
0.991411
1.00347
1.00355
0.989139
0.992161
1.00354
0.99036
1.01173
1.004
0.979565
0.987308
1.0085
0.991849
0.994573
0.994853
1.00227
1.00105
1.00252
1.01093
0.98767
0.985473
1.00404
0.992347
1.00025
0.998204
1.01003
0.991397
0.991405
1.01323
1.00063
0.988257
0.989936
0.995539
0.979164
0.999823
1.00414
0.987314
1.00283
1.0104
1.00744
0.990959
1.01688
1.00552
1.00568
0.991556
1.00302
1.00507
1.00293
0.993737
0.992603
0.993701
1.00967
0.990747
1.00332
0.990751
0.987141
1.02296
1.00986
1.00293
0.991301
1.00203
0.993307
1.00355
1.00277
0.988294
0.985858
1.01156
1.0025
0.988496
0.995995
0.998848
1.01089
0.992526
0.996057
0.993231
0.990532
1.00007
1.01177
0.992812
1.0037
1.00285
1.00201
1.00782
0.999836
1.00848
1.0049
1.00451
0.989626
1.01753
1.00496
0.993079
1.00335
0.994021
0.995503
0.991405
0.99257
0.992785
1.01009
1.00237
0.991695
1.00878
0.993722
1.00331
1.01739
0.991514
0.99289
0.992996
0.993362
1.00384
0.990591
0.994799
1.00261
0.997115
1.00956
0.999761
1.01138
1.01333
1.00232
1.0064
0.994979
0.992803
0.99834
0.992508
1.01132
1.00518
1.00006
1.0089
0.992768
1.00164
1.00959
1.00412
0.993585
1.00632
1.01539
1.003
0.992994
1.00281
0.995262
0.992607
0.992707
1.00233
1.00808
0.996326
0.999865
1.01103
0.996489
0.999959
0.992876
0.991279
1.00398
1.00795
0.996029
1.00906
0.994428
0.992787
0.995971
0.992789
1.0111
1.00961
1.00619
1.00246
0.996433
1.00457
0.996306
0.994047
1.0087
0.994081
1.00133
0.995534
1.01035
0.998514
1.00468
1.00661
0.999706
1.00886
0.992184
1.00663
1.0024
1.00318
0.994328
1.00188
0.994968
0.994072
1.00788
1.0082
0.997226
0.993579
0.991995
0.996002
0.996264
0.995858
1.00565
0.992292
0.995863
1.00111
1.00738
0.994133
1.00204
0.994165
1.0085
1.00308
1.00193
1.00776
0.997121
1.0061
0.993914
1.00111
0.995314
0.993214
0.996577
1.00787
0.989566
1.00665
0.994097
1.00643
1.00869
1.00743
1.00358
0.998183
1.00106
1.00221
1.00192
1.00284
0.994185
0.995939
0.99644
0.991593
0.993867
1.00651
0.996281
0.996502
0.99331
1.0022
1.00617
1.00163
0.996568
1.00188
1.00093
0.994505
0.993423
1.00235
0.994077
0.994937
1.00419
1.00147
1.0077
0.996812
0.994931
1.00089
1.00683
0.995927
0.99688
1.00362
0.992963
1.00372
1.00378
0.994702
0.996455
1.00497
1.00761
1.00151
0.998513
0.999596
1.00238
1.00064
0.995278
1.00269
0.99247
0.995766
0.996057
0.994891
0.990189
0.997049
0.996859
1.00647
0.992456
1.00442
0.993515
1.00169
0.996328
1.00152
1.00223
0.9956
1.00174
0.995157
1.00104
0.99486
1.00616
1.00352
0.997427
0.994846
0.997782
1.00448
1.00082
1.00184
0.995997
1.00477
0.995067
1.00305
1.00683
1.00146
0.998368
1.00079
1.00174
0.993831
0.997118
1.00271
0.997313
0.995197
0.99766
0.996571
0.993689
0.994706
1.00522
0.997163
1.00137
0.995052
0.995166
0.998681
0.994729
1.00465
1.00171
1.00155
0.996142
1.00177
1.00195
0.995089
0.994711
1.00259
1.00611
1.00144
0.997317
1.00066
0.995692
1.00281
1.00315
0.996553
1.004
0.996401
1.00119
0.995774
1.00182
1.00065
1.00057
0.997346
1.00078
1.00227
0.997427
0.99449
1.00238
0.996512
0.996283
0.997213
0.995549
1.00135
0.995073
1.00523
0.997613
0.994658
1.00334
0.996078
1.00174
1.00123
0.996243
1.00178
0.996005
1.0021
0.995334
1.00311
1.00482
0.997834
1.00351
0.995643
1.00144
1.00064
1.00411
0.995778
0.995798
0.99708
1.00269
0.995847
1.00194
0.997613
1.00525
0.995885
1.00052
1.00221
1.00062
0.998648
0.997172
1.00222
0.996981
1.0011
0.99545
0.995502
1.0043
0.995362
0.995337
1.00144
1.00367
0.997735
0.996312
1.00119
1.0026
1.00054
1.00228
0.996085
0.994621
0.996897
1.00099
0.995799
1.00053
1.00224
1.00487
0.997814
0.996266
1.00354
1.00281
0.996753
0.994351
0.997538
1.00019
0.99673
1.00163
1.00137
0.997121
0.994816
1.00051
1.00171
1.00045
1.00178
1.00263
0.997155
0.99697
0.996579
0.995094
0.995806
1.00441
1.00377
1.00145
1.001
1.00094
0.995169
0.998323
0.997115
1.00197
1.00296
0.997534
0.996794
0.995736
1.00091
1.00229
0.998228
1.00393
0.998301
0.996165
1.00052
1.00365
0.996538
0.998511
0.997068
1.00234
1.00392
1.00202
0.997465
0.995674
0.997407
1.00142
1.00233
0.997687
1.00051
1.00185
0.998902
1.00372
0.997534
0.994993
0.99649
1.00362
1.00122
1.0015
1.00442
1.0007
0.995422
1.00258
1.00095
0.998312
0.995986
0.996049
1.00232
0.996486
0.997563
0.998307
0.998175
1.00043
0.998227
1.00419
1.00294
1.00019
0.996735
1.0025
1.00239
0.998278
1.00169
0.998019
1.00338
0.994173
1.00173
0.997217
1.00275
1.00041
1.0015
1.00037
0.997677
0.995107
0.997515
0.996356
1.00131
1.00284
1.00375
1.00292
1.00118
0.996299
1.00518
1.00171
1.00278
1.00102
0.998378
1.00198
0.995993
0.998526
0.996984
0.998004
0.997986
0.998557
1.00348
1.00042
0.996844
1.00299
1.00278
1.00018
0.995954
0.996702
1.00202
0.998317
1.00187
0.996011
1.00413
0.997258
1.00286
1.00145
0.998107
0.995612
1.00042
1.00169
0.999108
0.997964
1.00158
1.00307
0.995979
1.00259
1.00098
1.00151
0.998375
0.996634
1.00237
1.00189
0.998309
0.999922
1.00089
1.0026
0.996703
1.00149
0.99779
0.99791
0.996254
1.00035
1.00245
0.998557
1.00371
0.997653
0.996858
1.00214
0.998313
1.00052
1.00156
0.996652
0.997397
1.00355
1.00155
1.00324
0.996883
1.00034
1.00138
1.00132
0.998101
1.0003
1.00245
0.997949
0.996777
1.00315
1.00097
0.996423
0.997527
0.998601
1.00155
0.998558
1.00431
1.00229
0.998582
1.00185
1.0014
1.00109
0.998256
0.996607
0.997769
0.998823
1.00035
1.00308
0.996798
1.00247
0.997786
0.996468
1.00171
1.00143
1.00057
0.998156
0.997788
1.00177
0.997211
1.00363
1.00127
1.00136
1.00226
0.996145
0.99845
0.997685
1.00034
1.00148
0.999273
0.998328
1.00258
1.0008
1.00294
1.00124
0.997642
1.00182
0.998823
1.00002
1.00144
0.999025
1.00092
0.996546
1.00029
0.998262
1.002
0.998008
1.00178
1.00158
0.998824
1.00315
0.996947
0.995877
0.998355
1.00177
1.00129
1.00075
0.998811
0.997883
0.996025
1.00302
1.00146
0.998191
1.00109
0.998777
1.00028
0.998238
1.00118
0.998449
1.00025
1.00187
1.00192
1.00261
1.00124
0.998326
1.00079
0.998017
1.00343
1.00002