# vtk DataFile Version 2.0
feflo
ASCII
DATASET UNSTRUCTURED_GRID
POINTS 80 double  
0.5 0 0 
0.46194 0.191342 0 
0.353553 0.353553 0 
0.191342 0.46194 0 
-2.18557e-08 0.5 0 
-0.191342 0.46194 0 
-0.353553 0.353553 0 
-0.46194 0.191342 0 
-0.5 -4.37114e-08 0 
-0.46194 -0.191342 0 
-0.353553 -0.353553 0 
-0.191342 -0.46194 0 
6.55671e-08 -0.5 0 
0.191342 -0.46194 0 
0.353553 -0.353553 0 
0.46194 -0.191342 0 
0.884503 0.175939 0 
0.749846 0.501031 0 
0.501031 0.749846 0 
0.175939 0.884503 0 
-0.175939 0.884503 0 
-0.501031 0.749846 0 
-0.749846 0.501031 0 
-0.884503 0.175939 0 
-0.884503 -0.175939 0 
-0.749846 -0.501031 0 
-0.501031 -0.749846 0 
-0.175939 -0.884503 0 
0.175939 -0.884503 0 
0.501031 -0.749846 0 
0.749846 -0.501031 0 
0.884503 -0.175938 0 
2.20148 0 0 
2.0339 0.842468 0 
1.55668 1.55668 0 
0.842468 2.0339 0 
-9.62295e-08 2.20148 0 
-0.842468 2.0339 0 
-1.55668 1.55668 0 
-2.0339 0.842468 0 
-2.20148 -1.92459e-07 0 
-2.0339 -0.842468 0 
-1.55668 -1.55668 0 
-0.842468 -2.0339 0 
2.88689e-07 -2.20148 0 
0.842468 -2.0339 0 
1.55668 -1.55668 0 
2.0339 -0.842468 0 
6.28184 1.24954 0 
5.32549 3.55838 0 
3.55838 5.32549 0 
1.24954 6.28184 0 
-1.24954 6.28184 0 
-3.55838 5.32549 0 
-5.32549 3.55838 0 
-6.28184 1.24954 0 
-6.28184 -1.24954 0 
-5.32549 -3.55838 0 
-3.55838 -5.32549 0 
-1.24954 -6.28184 0 
1.24954 -6.28184 0 
3.55838 -5.32549 0 
5.32549 -3.55838 0 
6.28184 -1.24953 0 
20.0001 0 0 
18.4777 7.6537 0 
14.1422 14.1422 0 
7.6537 18.4777 0 
-8.74231e-07 20.0001 0 
-7.6537 18.4777 0 
-14.1422 14.1422 0 
-18.4777 7.65369 0 
-20.0001 -1.74846e-06 0 
-18.4777 -7.6537 0 
-14.1422 -14.1422 0 
-7.65369 -18.4777 0 
2.62269e-06 -20.0001 0 
7.6537 -18.4777 0 
14.1422 -14.1422 0 
18.4777 -7.65369 0 
CELLS 128 512
3 0 16 1
3 0 31 16
3 1 17 2
3 1 16 17
3 2 18 3
3 2 17 18
3 3 19 4
3 3 18 19
3 4 20 5
3 4 19 20
3 5 21 6
3 5 20 21
3 6 22 7
3 6 21 22
3 7 23 8
3 7 22 23
3 8 24 9
3 8 23 24
3 9 25 10
3 9 24 25
3 10 26 11
3 10 25 26
3 11 27 12
3 11 26 27
3 12 28 13
3 12 27 28
3 13 29 14
3 13 28 29
3 14 30 15
3 14 29 30
3 15 31 0
3 15 30 31
3 16 32 33
3 16 31 32
3 17 33 34
3 17 16 33
3 18 34 35
3 18 17 34
3 19 35 36
3 19 18 35
3 20 36 37
3 20 19 36
3 21 37 38
3 21 20 37
3 22 38 39
3 22 21 38
3 23 39 40
3 23 22 39
3 24 40 41
3 24 23 40
3 25 41 42
3 25 24 41
3 26 42 43
3 26 25 42
3 27 43 44
3 27 26 43
3 28 44 45
3 28 27 44
3 29 45 46
3 29 28 45
3 30 46 47
3 30 29 46
3 31 47 32
3 31 30 47
3 32 48 33
3 32 63 48
3 33 49 34
3 33 48 49
3 34 50 35
3 34 49 50
3 35 51 36
3 35 50 51
3 36 52 37
3 36 51 52
3 37 53 38
3 37 52 53
3 38 54 39
3 38 53 54
3 39 55 40
3 39 54 55
3 40 56 41
3 40 55 56
3 41 57 42
3 41 56 57
3 42 58 43
3 42 57 58
3 43 59 44
3 43 58 59
3 44 60 45
3 44 59 60
3 45 61 46
3 45 60 61
3 46 62 47
3 46 61 62
3 47 63 32
3 47 62 63
3 48 64 65
3 48 63 64
3 49 65 66
3 49 48 65
3 50 66 67
3 50 49 66
3 51 67 68
3 51 50 67
3 52 68 69
3 52 51 68
3 53 69 70
3 53 52 69
3 54 70 71
3 54 53 70
3 55 71 72
3 55 54 71
3 56 72 73
3 56 55 72
3 57 73 74
3 57 56 73
3 58 74 75
3 58 57 74
3 59 75 76
3 59 58 75
3 60 76 77
3 60 59 76
3 61 77 78
3 61 60 77
3 62 78 79
3 62 61 78
3 63 79 64
3 63 62 79
CELL_TYPES 128
5
5
5
5
5
5
5
5
5
5
5
5
5
5
5
5
5
5
5
5
5
5
5
5
5
5
5
5
5
5
5
5
5
5
5
5
5
5
5
5
5
5
5
5
5
5
5
5
5
5
5
5
5
5
5
5
5
5
5
5
5
5
5
5
5
5
5
5
5
5
5
5
5
5
5
5
5
5
5
5
5
5
5
5
5
5
5
5
5
5
5
5
5
5
5
5
5
5
5
5
5
5
5
5
5
5
5
5
5
5
5
5
5
5
5
5
5
5
5
5
5
5
5
5
5
5
5
5
CELL_DATA 128
SCALARS rho double 1 
 LOOKUP_TABLE default
0.853758
0.938088
0.880294
0.944276
0.921974
0.962319
0.972334
0.98318
1.02554
1.00434
1.0758
1.02386
1.11661
1.04109
1.14203
1.05581
1.14332
1.06139
1.11956
1.05685
1.0799
1.04251
1.03022
1.02548
0.977033
1.00619
0.926186
0.985073
0.883484
0.964108
0.855171
0.945572
0.998061
0.991443
0.998983
0.992675
0.999904
0.995335
1.00027
0.997963
1.00016
1.00031
1.00006
1.00212
1.00042
1.00316
1.00101
1.00348
1.00104
1.00343
1.00047
1.00349
1.00007
1.00321
1.00015
1.00224
1.00028
1.0005
0.999962
0.998185
0.999078
0.995575
0.998109
0.992883
1.0002
0.999565
0.99995
0.999791
0.999763
1.0002
0.999806
1.00033
1.00004
1.00008
1.00026
0.999736
1.00015
0.999707
0.999747
1.0001
0.999716
1.00042
1.00012
1.00015
1.00027
0.999727
1.00006
0.999716
0.99982
1.00005
0.999758
1.00032
0.999927
1.00023
1.00019
0.99983
0.999655
1.00035
1.00002
1.00017
1.00029
0.99988
1.00022
0.999778
0.999899
0.999904
0.999676
1.00015
0.999866
1.00023
1.00033
0.999944
1.00036
0.999632
0.999903
0.999907
0.999674
1.00022
0.999869
1.00017
1.0002
0.999924
1.0003
0.999781
1.00005
0.999861
0.999675
1.00014
SCALARS u double 1 
 LOOKUP_TABLE default
0.51932
0.822369
0.677968
0.856678
0.873269
0.933241
0.998258
0.997564
0.98542
1.0207
0.832545
0.991212
0.611324
0.923036
0.438355
0.84709
0.433043
0.813377
0.600778
0.844265
0.822739
0.919972
0.98084
0.989411
1.00045
1.02097
0.880697
0.99994
0.687066
0.936959
0.524363
0.860245
0.994753
0.973194
0.997262
0.97892
0.99961
0.989959
1.00052
0.998307
1.00001
1.00108
0.999061
0.997563
0.99825
0.990898
0.997666
0.984861
0.997662
0.982308
0.998235
0.984631
0.999038
0.990593
0.99997
0.997305
1.00052
1.00108
0.999706
0.998623
0.997435
0.990511
0.99485
0.979529
0.999513
0.999598
0.999264
0.999676
0.999496
0.999941
1.00027
1.00014
1.00058
0.999964
0.999872
0.99965
0.999357
0.999645
0.999666
0.999842
0.999681
0.999942
0.999338
0.999855
0.999798
0.999654
1.00055
0.999633
1.00034
0.999933
0.999553
1.00014
0.999275
0.999968
0.999505
0.999698
0.999582
0.999877
0.999805
0.999599
1.00012
0.999392
1.00011
0.999885
0.999779
1.00056
0.99965
1.00032
0.999786
0.999563
0.999853
0.999517
0.999852
0.999825
0.999793
0.999526
0.99965
0.999507
0.99975
1.00026
1.00009
1.00058
1.00013
0.999951
0.999838
0.999421
0.999595
0.999585
SCALARS v double 1 
 LOOKUP_TABLE default
-0.0887065
0.0180371
-0.226972
-0.0544793
-0.217922
-0.0715489
-0.0793857
-0.0353015
0.112582
0.0337859
0.254533
0.100096
0.263631
0.128451
0.123213
0.100079
-0.090272
0.0183223
-0.235931
-0.0651867
-0.232953
-0.0962728
-0.0945764
-0.0700739
0.0980076
-0.00481983
0.240958
0.0650133
0.256536
0.103058
0.124428
0.0886564
0.0162915
0.0174674
0.0152444
0.00847475
0.0159421
0.00695425
0.0173656
0.0115003
0.0185706
0.0190297
0.0190111
0.0249122
0.0188746
0.0258604
0.0180827
0.0227163
0.0168487
0.0173997
0.0160141
0.0120658
0.015857
0.00886749
0.0162681
0.00960075
0.0174313
0.015243
0.0188491
0.0227621
0.0195725
0.027435
0.0186184
0.0261934
0.0177791
0.0174402
0.0179823
0.0175611
0.0175438
0.0174768
0.0173226
0.0174251
0.0176373
0.01747
0.0175686
0.0174044
0.016872
0.017311
0.0169224
0.0173447
0.017906
0.0174497
0.018064
0.0175519
0.0173838
0.0175902
0.0172661
0.0175036
0.017587
0.0174376
0.017392
0.017487
0.0169263
0.0174429
0.0170603
0.0173385
0.0175293
0.0174117
0.0175637
0.0181119
0.0174917
0.0179097
0.0175025
0.0174152
0.0174157
0.017425
0.0172645
0.0176329
0.01731
0.0171688
0.0174352
0.0166953
0.0174647
0.0174032
0.0175802
0.018187
0.0176389
0.0177893
0.0175012
0.0172955
0.0174112
0.0174791
0.0174249
0.0175189
0.0173473
0.0170269
0.0173541
0.0167643
SCALARS E double 1 
 LOOKUP_TABLE default
11.0681
12.2085
11.4037
12.2626
11.9192
12.4339
12.5305
12.6569
13.173
12.9144
13.7916
13.1552
14.3177
13.3362
14.6679
13.4607
14.6862
13.4979
14.3571
13.4688
13.8433
13.3492
13.2298
13.1739
12.5872
12.9377
11.9707
12.6789
11.4436
12.4517
11.086
12.2744
12.871
12.7574
12.8522
12.7771
12.8394
12.8183
12.853
12.853
12.8815
12.8732
12.8935
12.8822
12.877
12.8907
12.8527
12.9033
12.8513
12.9107
12.8746
12.9044
12.8931
12.8917
12.8837
12.8829
12.8554
12.8743
12.8394
12.8554
12.8504
12.8219
12.8699
12.7804
12.862
12.8893
12.8656
12.8761
12.8697
12.8512
12.8699
12.8458
12.8657
12.8658
12.8625
12.8866
12.8648
12.8827
12.8693
12.8585
12.8696
12.8434
12.8652
12.8563
12.8625
12.8811
12.8653
12.8874
12.8696
12.8681
12.8699
12.8467
12.866
12.8496
12.8622
12.8738
12.8862
12.8638
12.8629
12.8648
12.8449
12.8678
12.8536
12.8698
12.8781
12.868
12.8884
12.8642
12.8717
12.8635
12.8475
12.8667
12.8462
12.8689
12.8694
12.867
12.8879
12.8637
12.88
12.864
12.8555
12.8676
12.8445
12.8698
12.8606
12.868
12.8849
12.865
SCALARS Mach double 1 
 LOOKUP_TABLE default
0.196587
0.308736
0.268103
0.32293
0.339877
0.354012
0.38024
0.379177
0.377099
0.388538
0.32983
0.378792
0.250619
0.354003
0.170474
0.323884
0.165563
0.308916
0.242834
0.321524
0.323795
0.351348
0.374602
0.377097
0.381816
0.388438
0.344998
0.380741
0.275182
0.356687
0.201149
0.325474
0.377528
0.369465
0.378981
0.371617
0.380293
0.37586
0.380525
0.379161
0.379873
0.380454
0.379298
0.379335
0.3793
0.376785
0.379552
0.374243
0.379569
0.373073
0.379321
0.374062
0.379275
0.376543
0.379805
0.379143
0.380492
0.380448
0.380362
0.37937
0.379126
0.376211
0.377609
0.371971
0.379978
0.379465
0.379777
0.379744
0.379765
0.380311
0.380077
0.380499
0.38031
0.380072
0.380123
0.379561
0.379858
0.379611
0.37983
0.380139
0.379833
0.380475
0.379847
0.380189
0.380094
0.379646
0.380309
0.379538
0.38011
0.380017
0.379782
0.380484
0.379763
0.380352
0.379964
0.379793
0.379524
0.38012
0.380041
0.379964
0.380495
0.379779
0.380347
0.379919
0.379773
0.380238
0.37952
0.380252
0.379867
0.379976
0.380358
0.37985
0.380384
0.379881
0.379915
0.379851
0.379529
0.379954
0.379727
0.380234
0.380304
0.380257
0.38051
0.379947
0.380095
0.379777
0.379552
0.379941
